506       
 energy: -691.882559457181 gnorm: 0.001177977228 xtb: 6.7.1 (edcfbbe)
O -6.241191 -8.837026 7.173793
O -3.346005 -8.301993 13.250297
O -3.807614 -9.520448 15.065967
C -6.280405 -7.668030 6.775908
C -4.118733 -8.623358 14.127247
C -5.160419 -6.039914 5.244032
C -6.042975 -8.069023 4.314001
C -4.735454 -5.647543 3.991215
C -5.637635 -7.657883 3.056542
C -5.827160 -7.251706 5.418946
C -4.976687 -6.445650 2.879366
N -4.461815 -4.591287 1.356568
N -6.741583 -6.652858 7.518862
C -2.518713 -10.126301 15.006198
C -4.495519 -6.040844 1.510915
C -5.505542 -8.081062 14.325872
C -7.019264 -6.713229 8.933772
C -5.519320 -6.549389 14.299097
C -6.217645 -5.647093 9.680330
C -6.898637 -5.987993 14.647717
C -6.905582 -4.282139 9.685376
C -6.947501 -4.466767 14.477186
C -6.004370 -3.181267 10.272158
C -7.133220 -4.062675 13.012123
C -6.725711 -2.250772 11.257033
C -6.570878 -2.675013 12.718512
H -6.522633 -9.030974 4.445282
H -4.204643 -4.716996 3.878605
H -5.821321 -8.301109 2.206211
H -3.619075 -4.220797 1.784038
H -4.435060 -4.361276 0.370283
H -6.798258 -5.740086 7.091262
H -2.382908 -10.642076 15.951669
H -2.468819 -10.829446 14.172722
H -1.747571 -9.367296 14.866152
H -5.160918 -6.470179 0.757080
H -3.506522 -6.510303 1.357342
H -5.888054 -8.462465 15.271158
H -4.933687 -5.419613 6.098055
H -6.111175 -8.468534 13.501653
H -6.725999 -7.708514 9.273457
H -8.092222 -6.567215 9.095648
H -5.205829 -6.220332 13.307697
H -4.782626 -6.177917 15.013973
H -5.228110 -5.579028 9.222501
H -6.074890 -5.997592 10.702568
H -7.131635 -6.255650 15.678496
H -7.651109 -6.443354 14.002809
H -7.825634 -4.360605 10.265952
H -7.196767 -4.020748 8.665383
H -6.009855 -4.047124 14.843657
H -7.767764 -4.056622 15.065413
H -5.586982 -2.595369 9.451835
H -5.158015 -3.647376 10.778756
H -8.193845 -4.088142 12.752625
H -6.621644 -4.785199 12.379794
H -7.785334 -2.211946 11.004925
H -6.322764 -1.240559 11.156742
H -5.507831 -2.663686 12.969538
H -7.080468 -1.943174 13.346349
C -4.036566 3.447037 3.446802
C -3.289160 2.326175 4.115033
C -3.915708 0.976840 3.882426
C -3.703798 0.298830 2.687454
C -4.680779 0.368213 4.868872
C -4.217602 -0.972226 2.498387
C -5.197720 -0.901889 4.680001
C -4.955625 -1.581876 3.499008
H -3.566945 4.600924 3.782662
H -4.187284 3.393438 2.385746
H -3.223662 2.520442 5.186367
H -2.272914 2.314359 3.709867
H -3.123699 0.766125 1.902507
H -4.858102 0.892099 5.797089
H -4.032643 -1.490667 1.570284
H -5.779644 -1.366506 5.461751
H -5.329151 -2.583139 3.356036
H -5.093892 3.849461 4.043028
C -5.933831 0.246088 -0.446220
C -4.520131 -0.079219 -0.954098
O -3.717729 0.842011 -1.119260
C -7.031237 -0.796646 -0.565032
C -8.344061 -0.162144 -0.093513
C -9.555457 -1.046166 -0.361592
N -9.738848 -1.197685 -1.791414
C -10.183951 -2.292208 -2.396772
N -10.721420 -3.287712 -1.702631
N -10.133327 -2.381150 -3.723888
H -5.802584 0.539775 0.598104
H -6.803236 -1.662620 0.057625
H -7.119163 -1.122932 -1.601780
H -8.481633 0.799190 -0.592426
H -8.281389 0.033192 0.976352
H -10.446428 -0.596034 0.087085
H -9.380356 -2.022206 0.095109
H -9.449249 -0.413977 -2.357324
H -10.776459 -4.210585 -2.124609
H -6.252419 1.207889 -1.000410
H -10.729547 -3.249326 -0.698162
H -9.743074 -1.647309 -4.287855
H -10.492293 -3.200944 -4.182132
N -4.155221 -1.361517 -1.144955
C -2.863751 -1.759780 -1.761029
C -2.627056 -3.245808 -1.578295
S -3.966415 -4.198704 -2.425705
H -2.076046 -1.186995 -1.260848
H -2.617275 -3.529823 -0.530455
H -1.678403 -3.522985 -2.034337
H -3.985002 -5.231420 -1.588310
H -2.909009 -1.502721 -2.722810
H -4.857531 -2.088942 -1.130738
C -2.207631 -11.932240 3.081493
C -2.366731 -13.163572 3.927159
O -3.030588 -14.138593 3.593830
C -3.143279 -10.784911 3.495080
C -2.962186 -10.367874 4.953064
C -2.889739 -9.604085 2.563930
H -1.171720 -11.594850 3.096494
H -4.177478 -11.125098 3.371523
H -1.939156 -10.050104 5.145751
H -3.635466 -9.541640 5.173794
H -3.236139 -11.181273 5.621281
H -1.836585 -9.329338 2.574888
H -3.182332 -9.879357 1.552986
H -3.481431 -8.747243 2.872187
H -2.477211 -12.272763 2.027875
N -1.663531 -13.128579 5.076529
C -1.757093 -14.159754 6.041432
C -0.527591 -14.222640 6.941132
O -0.529723 -15.333357 7.798901
H -1.950293 -15.106654 5.539180
H -0.443733 -13.291743 7.520580
H 0.364366 -14.335176 6.319412
H -1.350806 -15.347173 8.310105
H -1.219757 -12.263906 5.346676
H -2.814989 -13.980680 6.804688
C -3.421544 -10.454789 10.433908
C -4.866502 -10.157096 10.324186
O -5.314000 -9.020987 10.367476
C -2.573836 -9.710280 9.413661
C -1.129980 -9.605392 9.817327
C -0.784239 -8.992239 11.018292
C -0.113218 -10.080002 9.004410
C 0.534906 -8.858008 11.397467
C 1.216498 -9.949870 9.371061
C 1.546773 -9.337416 10.571289
O 2.843864 -9.183188 10.979891
H -3.085210 -10.209838 11.440474
H -2.992119 -8.699348 9.342661
H -2.672779 -10.168707 8.427323
H -1.562055 -8.608253 11.659863
H -3.197234 -11.847159 10.346102
H -0.358776 -10.554041 8.064089
H 0.800205 -8.377718 12.326235
H 1.993790 -10.324837 8.720039
H 3.452158 -9.476315 10.286309
N -5.636950 -11.247147 10.258951
C -7.021677 -11.097984 9.990231
C -7.686113 -10.232059 11.139784
O -7.174310 -10.276146 12.264617
C -7.663203 -12.493881 9.962295
O -9.064849 -12.396401 9.935135
H -7.183134 -10.585238 9.030684
H -7.341931 -13.035183 10.863477
H -7.288138 -13.022842 9.074337
H -9.446571 -13.276166 9.811222
H -5.213230 -12.144070 10.085263
N -8.776805 -9.497595 10.925416
C -9.459854 -8.650425 11.973400
C -10.296710 -7.696048 11.141531
C -10.758348 -8.609977 10.011960
C -9.492894 -9.391389 9.661300
H -9.691054 -6.881203 10.747560
H -11.127720 -7.285139 11.708706
H -11.152751 -8.072150 9.158663
H -11.525615 -9.295701 10.371586
H -8.691338 -8.171672 12.577399
H -9.712243 -10.381759 9.262884
H -8.878838 -8.857966 8.927434
H -10.074546 -9.263217 12.523826
C -6.733585 -15.551840 13.717407
C -6.389364 -14.283534 14.521744
C -6.460624 -12.978783 13.741957
C -5.916222 -11.809357 14.569264
N -6.659330 -11.577046 15.789353
C -7.785949 -10.875349 15.898298
N -8.300282 -10.214224 14.875375
N -8.369979 -10.787403 17.095716
H -6.046505 -15.652586 12.872176
H -5.376789 -14.404239 14.914865
H -7.077524 -14.239152 15.367994
H -7.487446 -12.775439 13.436490
H -5.856452 -13.053428 12.836052
H -5.920120 -10.915280 13.949730
H -4.886231 -12.025397 14.853343
H -7.664016 -15.518741 13.369958
H -6.367611 -12.115594 16.589962
H -9.134602 -9.668591 15.003095
H -7.894535 -10.261005 13.945148
H -8.026351 -11.313681 17.879343
H -9.245130 -10.303102 17.198444
H -6.589145 -16.264065 14.344867
C -6.202818 -15.366942 2.068339
C -6.335968 -13.849688 2.090464
C -6.373079 -13.239004 3.513277
O -6.448325 -13.983462 4.504962
O -6.336228 -11.982497 3.562553
H -7.137004 -15.836027 2.370505
H -7.238981 -13.519219 1.571543
H -5.476093 -13.391705 1.592172
H -6.031183 -15.674073 0.860278
H -5.500083 -15.629987 2.581658
C -5.609318 -9.952111 -2.367749
C -4.718779 -8.822543 -1.841599
O -5.192174 -7.878503 -1.215270
C -6.599635 -10.367391 -1.282154
C -5.904744 -10.731671 0.023260
N -6.702359 -10.663193 1.096917
O -4.713318 -11.021372 0.082324
H -6.165520 -9.548873 -3.217480
H -7.172011 -11.236218 -1.610830
H -7.284817 -9.544991 -1.080089
H -5.023231 -10.775064 -2.709741
H -6.416593 -11.056900 1.999503
H -7.691144 -10.530906 0.964677
N -3.412576 -8.900128 -2.134316
C -2.434190 -7.873082 -1.831186
C -1.612581 -7.628883 -3.141396
O -1.507549 -8.533509 -3.967390
C -1.494422 -8.289697 -0.696932
C -0.596334 -7.178453 -0.261376
C 0.587361 -7.278272 0.420275
N -0.871291 -5.857522 -0.486700
C 0.119236 -5.185946 0.045797
N 1.032171 -6.001566 0.606127
H -2.975664 -6.970365 -1.540911
H -0.894097 -9.147656 -1.010189
H -2.114989 -8.614200 0.143214
H 1.121734 -8.136333 0.769245
H 0.200378 -4.118253 0.036726
H 1.890166 -5.737436 1.063802
H -3.056513 -9.667192 -2.687860
N -1.054062 -6.422454 -3.283755
C -0.226876 -5.953012 -4.410599
C -0.942059 -4.823411 -5.152427
C -0.007799 -4.152483 -6.145687
S -0.803248 -2.652483 -6.834411
C 0.609013 -1.988521 -7.759661
H -0.033573 -6.805365 -5.061388
H -1.277204 -4.075613 -4.431574
H -1.822188 -5.208478 -5.667798
H 0.238907 -4.815149 -6.975670
H 0.910048 -3.825768 -5.655138
H 1.421129 -1.772892 -7.071603
H -1.143759 -5.794021 -2.487226
H 0.919071 -2.708807 -8.511129
H 0.269553 -1.075036 -8.235236
H 0.699553 -5.574181 -3.994162
C -0.291360 -2.785369 3.679637
C 0.690812 -3.933040 3.746851
C 0.205581 -5.019708 4.693825
S -1.278997 -5.874804 4.022148
C -1.694665 -6.842722 5.491571
H -1.280127 -3.116874 3.392724
H 1.664040 -3.578001 4.091805
H -0.356691 -2.220746 4.680200
H 0.812643 -4.363015 2.752348
H -0.082625 -4.592883 5.653748
H 0.970985 -5.781183 4.849806
H -2.573307 -7.430132 5.247578
H -0.866445 -7.500546 5.741633
H -1.914866 -6.179782 6.323637
H 0.057537 -1.946440 2.925949
C 0.788862 -0.477920 9.568241
C 1.641517 -1.737381 9.548216
O 2.696924 -1.831033 10.169371
C 0.118520 -0.443965 10.956749
O -0.728864 -1.568089 11.085800
H 1.470670 0.378259 9.529660
H -0.462780 0.480983 11.062210
H 0.172931 -0.447454 8.904474
H 0.902960 -0.463576 11.723359
H -1.080167 -1.577170 11.986080
N 1.116922 -2.744387 8.841332
C 1.622436 -4.088316 8.887816
C 0.479670 -5.099946 8.841827
C -0.462306 -5.020040 10.032743
S -1.977571 -5.969935 9.617518
C -2.812539 -5.913081 11.228402
H 2.240975 -4.196249 9.780205
H 0.894405 -6.106992 8.777135
H -0.098491 -4.925883 7.930337
H -0.753249 -3.990231 10.244087
H -0.013987 -5.469122 10.918694
H 0.225010 -2.613571 8.387697
H -3.625935 -6.630565 11.181246
H -2.112883 -6.210453 12.002053
H -3.187893 -4.909867 11.400665
H 2.296622 -4.317622 7.962009
C 7.269459 -7.942963 17.338339
C 5.786386 -7.622869 17.527382
C 5.086924 -7.412911 16.212494
C 4.791075 -6.134873 15.754631
C 4.731847 -8.495049 15.416319
C 4.158898 -5.936038 14.542424
C 4.104483 -8.310735 14.198455
C 3.814010 -7.026826 13.750302
O 3.187444 -6.795468 12.563965
H 7.786570 -7.142528 16.819677
H 5.692832 -6.723406 18.138248
H 5.315127 -8.450541 18.061892
H 5.060237 -5.278753 16.356014
H 4.944880 -9.500187 15.751786
H 3.931939 -4.943434 14.185228
H 3.835082 -9.162323 13.589268
H 3.098519 -7.632265 12.068967
H 7.755053 -8.108019 18.336542
H 7.403404 -8.877021 16.790714
C 4.411563 -14.052716 12.396027
C 3.424997 -13.134699 13.123942
C 1.976373 -13.409466 12.725595
O 3.599596 -13.231324 14.528835
H 4.120014 -15.094931 12.512372
H 3.671843 -12.090278 12.901220
H 1.309136 -12.769235 13.296559
H 1.837318 -13.209827 11.667390
H 1.722507 -14.449530 12.918632
H 3.422089 -14.142244 14.802412
H 4.307004 -13.814892 11.161139
H 5.267851 -13.891962 12.631183
C -11.946462 -7.052153 -1.553971
C -10.514227 -6.631735 -1.235908
C -9.630526 -7.848657 -0.978353
O -10.033978 -5.884767 -2.347674
H -12.295187 -7.777291 -0.824544
H -10.493744 -5.988555 -0.342461
H -8.603730 -7.542180 -0.779118
H -9.992908 -8.402512 -0.116294
H -9.640378 -8.510880 -1.842304
H -9.068529 -5.924856 -2.363243
H -12.648001 -6.230080 -1.584666
H -11.954121 -7.499373 -2.528973
C -12.868982 -6.695090 6.165596
C -13.284045 -5.371682 5.503915
O -14.230985 -4.717020 5.932516
C -11.636882 -6.529068 7.077276
C -10.645273 -5.500775 6.610700
C -10.856919 -4.158858 6.910549
C -9.509706 -5.855238 5.894461
C -9.959303 -3.192400 6.498791
C -8.601993 -4.889113 5.490412
C -8.825352 -3.557106 5.790858
H -13.716386 -7.029890 6.763809
H -11.142374 -7.499143 7.152702
H -11.996417 -6.231109 8.065058
H -11.745412 -3.879321 7.459843
H -9.322480 -6.894570 5.656365
H -10.146153 -2.155896 6.733015
H -12.693423 -7.495499 5.382567
H -7.727598 -5.183904 4.929653
H -8.120153 -2.808932 5.464694
N -12.560658 -4.974609 4.444963
C -12.656074 -3.673455 3.779003
C -11.882586 -3.726000 2.446037
C -10.391037 -3.890207 2.510702
C -9.572868 -2.777953 2.667795
C -9.798764 -5.131423 2.304631
C -8.197734 -2.893589 2.568116
C -8.422324 -5.249140 2.208880
C -7.618048 -4.126501 2.316644
H -12.267966 -2.895291 4.442236
H -12.107124 -2.790910 1.929267
H -12.307699 -4.546393 1.863323
H -10.023809 -1.813197 2.845287
H -10.417686 -6.012043 2.190058
H -7.576146 -2.017159 2.670419
H -7.972763 -6.217932 2.039372
H -6.550132 -4.223150 2.192602
H -13.617111 -3.450089 3.462685
H -11.733734 -5.506239 4.210349
C -15.086217 -1.836868 8.712987
C -14.152957 -2.559507 9.691212
C -14.722765 -3.869898 10.155341
C -15.173936 -4.049881 11.453893
C -14.809971 -4.941069 9.270541
C -15.698323 -5.262474 11.867922
C -15.326794 -6.155797 9.672226
C -15.777510 -6.325256 10.978073
O -16.277243 -7.544876 11.334205
H -15.933610 -1.388440 9.221947
H -13.940683 -1.917579 10.546978
H -13.211108 -2.756510 9.174937
H -15.118231 -3.230749 12.155339
H -14.487583 -4.819034 8.246262
H -16.055311 -5.380076 12.881042
H -15.401731 -6.986899 8.986679
H -16.581491 -7.527427 12.253833
H -14.514707 -1.065163 8.184490
H -15.423684 -2.508298 7.982224
C -9.937012 1.917125 8.405001
C -9.230777 0.564097 8.455176
C -8.568317 0.235432 7.118617
O -8.267844 0.606930 9.500512
H -10.103412 2.312393 9.399547
H -9.971162 -0.219293 8.691723
H -8.103873 -0.748384 7.152357
H -9.308993 0.247457 6.324304
H -7.805758 0.977543 6.890595
H -7.674434 -0.149861 9.390539
H -9.399240 2.581435 7.828564
H -10.909870 1.829844 7.875134
C -4.654402 3.818578 12.667277
C -6.036153 3.837275 13.256878
O -6.271807 3.644165 14.442951
C -4.165131 2.370111 12.449630
C -5.029943 1.641711 11.422256
O -2.800351 2.351223 12.079817
H -4.643893 4.346828 11.712809
H -4.195986 1.842085 13.407100
H -6.056011 1.559726 11.767632
H -5.028310 2.176707 10.474818
H -4.630490 0.645775 11.251609
H -2.700767 2.818024 11.239508
H -3.929819 4.335003 13.345451
N -7.006881 4.033417 12.348566
C -8.363414 4.312972 12.738993
C -9.335176 3.231490 12.289373
O -9.964002 3.294323 11.240450
C -8.812948 5.669428 12.176585
C -10.153393 6.143072 12.753695
C -10.013041 6.620406 14.197277
C -10.717477 7.267681 11.886609
H -8.352525 4.350846 13.834345
H -8.921465 5.560466 11.094899
H -8.046379 6.420359 12.377130
H -10.858914 5.305908 12.718839
H -10.981289 6.930543 14.582443
H -9.625378 5.836838 14.841116
H -6.778208 4.174885 11.377089
H -9.339883 7.473685 14.245809
H -11.666013 7.619250 12.285828
H -10.028072 8.108976 11.854375
H -10.885720 6.919639 10.869984
N -9.451303 2.239140 13.167092
C -10.303585 1.109782 12.911102
C -9.613326 -0.194340 13.335046
C -10.296543 -1.410553 12.771369
C -10.218387 -1.664859 11.407068
C -10.982990 -2.307886 13.576745
C -10.788339 -2.800134 10.861489
C -11.570050 -3.438383 13.030904
C -11.467329 -3.693381 11.674802
H -10.491698 1.097594 11.832792
H -9.592338 -0.254647 14.421954
H -8.591475 -0.163905 12.951876
H -9.704135 -0.956479 10.777265
H -11.065968 -2.126263 14.637335
H -10.699186 -2.995284 9.801913
H -12.111656 -4.125920 13.662931
H -11.925221 -4.573943 11.248084
H -11.231981 1.224225 13.397188
H -8.898684 2.247702 14.011172
C -4.791350 4.284155 18.032782
C -4.814793 2.767349 18.238031
C -6.203407 2.324432 18.705023
C -6.330334 0.797587 18.735029
N -7.677060 0.348577 19.030693
C -8.210035 0.207296 20.241972
N -7.472512 0.325459 21.340076
N -9.486601 -0.154733 20.344372
H -4.903050 4.798144 18.989258
H -4.053001 2.473137 18.960842
H -4.590786 2.298388 17.278976
H -6.939929 2.731404 18.009495
H -6.408092 2.754999 19.686333
H -5.631380 0.372963 19.455542
H -6.082746 0.414816 17.746231
H -8.316148 0.354597 18.249908
H -5.573917 4.524697 17.440489
H -7.889894 0.209842 22.247105
H -6.540664 0.698824 21.297565
H -10.065332 -0.266007 19.530140
H -9.918550 -0.274599 21.243938
H -3.801171 4.615667 17.613091
C 0.164875 1.545983 21.755798
C -0.295864 0.202916 21.187218
C -1.530976 0.332016 20.291656
C -2.115190 -1.048685 19.988443
N -3.074858 -0.983080 18.900518
C -3.958863 -1.930769 18.588972
N -4.216355 -2.942106 19.407381
N -4.669466 -1.805823 17.469406
H 0.356764 2.268348 20.966730
H -0.517858 -0.461809 22.025194
H 0.519755 -0.248121 20.618307
H -1.238621 0.832184 19.366755
H -2.273130 0.954600 20.792189
H -2.601667 -1.421458 20.891348
H -1.294066 -1.727767 19.728756
H -2.880272 -0.277132 18.204502
H -4.897976 -3.637757 19.153961
H -3.681963 -3.089474 20.244856
H -4.433715 -1.107045 16.786861
H -5.323371 -2.521227 17.200033
H -0.555436 1.917150 22.417196
H 1.095337 1.400671 22.325930
