930
 energy: -1440.850732827224 gnorm: 0.000824678763 xtb: 6.7.1 (edcfbbe)
C            2.22500000000000       -5.24400000000000        2.38800000000000
C            2.08922754614148       -4.13085271232412        1.34320829363872
C            1.12867272960442       -4.45082097219064        0.23219244050664
C           -0.23345201389133       -4.56498797961577        0.48298723405093
C            1.58026415315005       -4.61311461964543       -1.07234287869123
C           -1.12346435281605       -4.81486119131646       -0.54560867048755
C            0.69171009835923       -4.84589167763641       -2.10782899599014
C           -0.66421463825115       -4.93683139555643       -1.84655037392590
H            1.32177513353610       -5.35349181894501        2.97849673440232
H            3.07410096304750       -3.93203876013581        0.91445979217959
H            1.75881090584531       -3.22352189994212        1.85625865774959
H           -0.60364810584616       -4.44808318127438        1.49223247750508
H            2.63719534688893       -4.54807146311268       -1.29088663746741
H           -2.17620731525441       -4.87854389507003       -0.32232204262017
H            3.06156200000000       -4.98192700000000        3.03575100000000
H            1.06261064948802       -4.94932504199996       -3.11771255616456
H           -1.35190103555517       -5.09560597060874       -2.66366450487524
H            2.45829300000000       -6.19946900000000        1.91815500000000
C           -3.01100000000000       -7.04600000000000        2.03800000000000
C           -3.66641781818487       -5.76866171860069        2.50967773790358
O           -3.36831829955796       -5.27645878338428        3.60059013047639
C           -3.81624874491207       -7.98277269239393        1.13867555870310
C           -3.01696648178554       -9.27613204153969        0.95112770150396
C           -3.73472563353305      -10.29392318859049        0.07351266654689
N           -4.95582994239466      -10.73405095975983        0.71570860274374
C           -6.05523160669715      -11.12036133523878        0.07697734686484
N           -6.06836925160934      -11.28601135460349       -1.23965743233368
N           -7.16541139034290      -11.37619810536922        0.76338258326694
H           -2.10464885133593       -6.73175411416310        1.50936056788666
H           -3.99438020394051       -7.52671107946976        0.16857063683191
H           -2.67804400000000       -7.63711600000000        2.89112500000000
H           -4.77650834060011       -8.19558450959077        1.60658951226342
H           -2.80102762528676       -9.72070479449819        1.92436569941126
H           -2.06169044029607       -9.03855647442245        0.48243982008839
H           -3.07032070896844      -11.14343483900717       -0.11628547431730
H           -3.97266351359152       -9.82087093155549       -0.88047799381494
H           -4.94653190951766      -10.74780824686200        1.72440704026262
H           -6.97550895340708      -11.33679499263911       -1.69325135625946
H           -5.26706555901966      -11.05940958338788       -1.80262797481945
H           -7.20647187658186      -11.27613121667394        1.76186613669916
H           -8.00303608020774      -11.63350534909287        0.26802932212501
N           -4.54953861388083       -5.16939515308809        1.68894638391812
C           -5.02100000000000       -3.84900000000000        2.05500000000000
C           -6.07689168248017       -3.89393982097971        3.17132430705834
O           -6.23569404203995       -2.94852475621099        3.94093919080337
C           -5.64366350284340       -3.10236451312780        0.88294924322993
S           -7.23637548345526       -3.82136692230852        0.36833070778217
H           -4.17617850764539       -3.28830300574304        2.46297466385058
H           -4.98250374323014       -3.12856576019469        0.02146552003453
H           -5.83348276279093       -2.06811003916384        1.16262660893433
H           -7.93180213758121       -3.33836826055329        1.39143453716280
H           -4.71748664388321       -5.46267688750895        0.71720192546924
N           -6.84729694171887       -4.97615268837770        3.13581096253871
C           -7.93600000000000       -5.24400000000000        4.05000000000000
C           -8.87882633218890       -6.29324777622744        3.46905831777384
C           -9.76377074305310       -5.73192562928290        2.36474085965205
S          -10.66721649027764       -7.04652550952578        1.47452963181863
C           -9.53763109361388       -7.30278206134762        0.06580646535431
H           -8.46274684082968       -4.31136519168041        4.26740712508112
H           -9.51421298385826       -6.67633611361496        4.26712958817908
H           -8.29027570158220       -7.12365520272541        3.07770727717437
H           -9.18901753741712       -5.19802560877368        1.61093810946223
H           -6.62273675139173       -5.68760625958297        2.45303960533120
H          -10.52018652293816       -5.06871198011500        2.78498102059172
H           -8.55030986909628       -7.54254596022526        0.44180612466818
H           -9.95738239493113       -8.13182215051586       -0.49268027370869
H           -9.51022467301286       -6.41123241292992       -0.55642380178153
H           -7.50125600000000       -5.61037700000000        4.97998200000000
C           -8.18500000000000       -0.99100000000000       -8.35200000000000
C           -8.38357691042854       -0.75478510063459       -9.83572516736256
O           -9.33396899165341       -1.22480495299659      -10.45640339966808
C           -7.24881738677330       -2.17482230509288       -8.08113690007431
C           -5.86437220053017       -1.91636425919431       -8.67146433913891
C           -7.16581204211006       -2.42369027089566       -6.57747209911106
H           -7.79270656361704       -0.09086305856916       -7.87773327501688
H           -7.66599725972989       -3.06384220288036       -8.56604841558909
H           -5.20998669814957       -2.74007584365226       -8.41355337599107
H           -5.92267281362086       -1.87994586230378       -9.75624096358833
H           -5.44340476975407       -0.98905339244008       -8.28926512779714
H           -6.77411391751798       -1.54977535035554       -6.06194753609167
H           -8.15599221154881       -2.65054657446401       -6.19038183688106
H           -6.52526637813306       -3.27732888826453       -6.37160468792683
H           -9.19959400000000       -1.18358100000000       -8.00327100000000
N           -7.47707963721098        0.04886053347293      -10.42295076921196
C           -7.41400000000000        0.21000000000000      -11.85800000000000
C           -6.73198880374513        1.53206324341704      -12.22732734535135
O           -6.51615890459731        1.64673524510886      -13.61324468840424
H           -8.43692518632907        0.16320137042060      -12.24008054589622
H           -5.73723051469193        1.56902471426118      -11.77491960791627
H           -7.32178281046627        2.37550659625917      -11.85055881031553
H           -7.36817254050529        1.70541833557181      -14.06463486731811
H           -6.85682900000000       -0.61921300000000      -12.29396600000000
H           -6.66343078628903        0.32774199309964       -9.89567245076633
C           -3.70800000000000       -0.05600000000000      -15.39700000000000
C           -2.59657892510126       -0.33507710624549      -14.39897557550157
O           -1.42617499142060       -0.03624763426369      -14.61707495663140
C           -3.81834495289759        1.44459076164284      -15.66480698979489
H           -3.43112242651025       -0.55523517270383      -16.32842935949139
H           -4.26709765087349        1.95016565124746      -14.81415792105677
H           -2.83101934165472        1.86225464065500      -15.85181133026565
H           -4.43675961327161        1.62510440189723      -16.53890606413902
H           -4.66965000000000       -0.43690600000000      -15.05314000000000
N           -2.97079253800531       -0.95169253263097      -13.25947192340887
C           -2.04000000000000       -1.41100000000000      -12.24600000000000
C           -1.85755729965953       -2.92782454123457      -12.26404073851475
O           -1.13274076969124       -3.48861258527029      -11.45384866934203
C           -2.46754596895047       -0.96485243963285      -10.84281979666031
C           -2.32029480895627        0.53493956137960      -10.63546809318860
S           -0.55437205439601        1.06035898885407      -10.56921373558071
C           -0.52643161834531        2.26515706167059      -11.92283594482382
H           -1.05877372098812       -0.98122445740100      -12.48208220575014
H           -1.84729143689700       -1.48700707554065      -10.11409682385696
H           -3.51007611908807       -1.24821591529894      -10.68017969752024
H           -2.76233203575814        0.82268190485410       -9.68468869634557
H           -3.95337204845430       -1.10758710467541      -13.08689650506437
H           -2.78123590288423        1.09633478616997      -11.44516286856279
H            0.48380685997243        2.66047511805407      -11.99278607177830
H           -0.81130744973816        1.78951180517535      -12.85910867017211
H           -1.20569253093293        3.08091848600003      -11.69303752070730
N           -2.58521400577666       -3.60122749850719      -13.15810520867553
C           -2.51800000000000       -5.04100000000000      -13.24700000000000
C           -1.08576556320634       -5.52510855416953      -13.50019576065796
O           -0.34519227679723       -4.88793912153815      -14.25301531979338
C           -3.40086060553871       -5.46039025333490      -14.43206120499055
O           -3.37672378718214       -6.85934337675017      -14.59709988888543
H           -2.89791983611534       -5.46861417921589      -12.31571000880026
H           -3.01416354737539       -4.96677845501147      -15.33486661446740
H           -4.42191964420626       -5.11427563074020      -14.23379551600684
H           -4.06649518000372       -7.09021809907711      -15.23496359495209
H           -3.02902375705734       -3.09734704057678      -13.91093499159480
N           -0.73490090189873       -6.68455792404522      -12.95234197605763
C            0.56600000000000       -7.25200000000000      -13.23700000000000
C            0.56979702364634       -7.94998275945289      -14.60403366807667
O            1.62867379343993       -8.25638908459300      -15.15987108860448
C            0.74822859959915       -8.32464649165641      -12.16680381631384
C           -0.67196879142081       -8.85097296445681      -12.00101168442019
C           -1.54037375489975       -7.60020283479976      -12.14815313484501
H            1.12264583177981       -7.86279365961761      -11.25473299572066
H            1.45966313868529       -9.08175103132283      -12.48984117042815
H           -0.80836234222629       -9.31940536853986      -11.03463904812113
H           -0.89785720403597       -9.57661230565570      -12.78138270790247
H            1.35802862034870       -6.49858601581423      -13.20540884492083
H           -2.48925608538093       -7.81502283836404      -12.63920399678336
H           -1.73392181657805       -7.16304819447937      -11.16964983623896
N           -0.62128113466453       -8.25321748214444      -15.11254655779215
C           -0.79300000000000       -8.98500000000000      -16.35300100000000
C           -2.14230345550301       -9.70051313442734      -16.37135244175914
C           -2.32582582160284      -10.61516599233477      -15.19116330415298
C           -1.62878342048250      -11.81494568009890      -15.09997478253932
C           -3.20126320496611      -10.28232170760813      -14.16685342568978
C           -1.81887343559069      -12.67019617634713      -14.03268551190238
C           -3.40634084237709      -11.13292249186217      -13.09574685558423
C           -2.72614360855111      -12.34162112568420      -13.02957652885012
O           -2.92180290314908      -13.22641250180422      -12.01106199408923
H            0.03590832615187       -9.69408710142672      -16.42689512834476
H           -2.20313628906419      -10.27600961006245      -17.29554677840978
H           -2.93533166137253       -8.95456851765452      -16.37324647686196
H           -0.93484820548817      -12.09072535239719      -15.87984672438716
H           -3.73985903301728       -9.34851498968514      -14.20305865277114
H           -1.28531900671372      -13.60507508346016      -13.96369971806867
H           -4.09931947501641      -10.85754414070237      -12.31390177001956
H           -1.46853820016932       -7.88308387756111      -14.69997331751849
H           -3.68276125760077      -12.94664213082148      -11.48089678543916
H           -0.71456600000000       -8.28839700000000      -17.18768100000000
C           -2.57600000000000       -3.35800000000000      -18.79900000000000
C           -2.85529906679061       -2.77579314020835      -20.17366127988958
O           -3.41130521038439       -1.69398859169150      -20.35003520887128
C           -1.09007699366240       -3.14388385930027      -18.48166907962625
C           -0.75655632192143       -3.38610906659453      -17.01278867759555
C            0.67493525698945       -2.95622090642385      -16.66833904948425
N            1.67202056024616       -3.63755800140138      -17.47410119449682
C            2.08845127200178       -4.88561290547884      -17.26056547062427
N            1.50512450527666       -5.65127409391818      -16.35064486614648
N            2.97443082564567       -5.41991557398869      -18.10967889374905
H           -3.18392634902475       -2.81308423712050      -18.07605057893037
H           -0.83521987541812       -2.10892229423785      -18.73187370843132
H           -0.46892951345444       -3.78974940907092      -19.10218832601367
H           -0.88708604886909       -4.43796577714699      -16.76596710444758
H           -1.41968000752399       -2.79474309222553      -16.38034421914396
H            0.85811009711374       -3.14927737521265      -15.60693721303948
H            0.78855586956027       -1.88548325003485      -16.84660092940222
H            2.19989076850067       -3.09595816453028      -18.14134163105154
H            1.89852648465279       -6.56130009268692      -16.13997695948292
H           -2.88036800000000       -4.40461900000000      -18.80603800000000
H            0.90796857899652       -5.24987346545713      -15.63043698032717
H            3.56219994429068       -4.79722844695438      -18.65533414262596
H            3.38956600383185       -6.30248295879461      -17.85682937979024
N           -2.44094815706789       -3.55419864551051      -21.18020821544993
C           -2.42300000000000       -3.11500000000000      -22.56200000000000
C           -1.70890573521214       -4.14953085420370      -23.42407216474838
C           -1.67374507655896       -3.73560558235643      -24.89366931314764
C           -0.93777854259543       -4.77406645441911      -25.74120040766541
C           -0.91787937199288       -4.36383974783018      -27.20943085183481
N           -0.15389091440199       -5.34504130690352      -28.01817661765664
H           -1.92070669515813       -2.14079845174471      -22.62204863450219
H           -2.22499115418774       -5.10549855141940      -23.32310602501917
H           -0.68688031664392       -4.26422432287112      -23.05553483726570
H           -1.17390968429437       -2.76874702483580      -24.97104790991112
H           -2.69584969352100       -3.61292208558462      -25.25409764462529
H           -1.43776084450895       -5.73571725129466      -25.62335697296680
H            0.08092435656534       -4.86566512911388      -25.36147243876940
H           -0.45251659989557       -3.38393640180627      -27.30406580008255
H           -1.93745687060395       -4.30292261175100      -27.58881756508012
H            0.81538357541470       -5.39613430589164      -27.68293237463958
H           -0.57452330239283       -6.27798593289146      -27.93359264246085
H           -0.14353576249348       -5.06991527599836      -29.00689229644003
H           -3.44959400000000       -2.96830100000000      -22.89768400000000
H           -1.89645106082579       -4.37451153728447      -20.95962411574331
C          -11.61600000000000       -4.26700000000000      -11.18300000000000
C          -10.58163261733523       -4.82540155368246      -10.21553389228907
C           -9.11776956426305       -4.72592923771634      -10.70517907978257
O           -8.88311995248032       -4.55510821194376      -11.91433260010902
O           -8.24118809698484       -4.84516311568967       -9.81208208658840
H          -11.80552976202120       -4.94518349135760      -12.00775946633194
H          -10.77759691406589       -5.87814574765918       -9.99532055853383
H          -10.62244678535256       -4.26870106672250       -9.27542367329554
H          -12.52374900000000       -4.07182000000000      -10.61203900000000
H          -11.23676300000000       -3.32448200000000      -11.57789000000000
C          -11.27300000000000       -5.21900000000000       -4.19900000000000
C          -10.22848552834822       -4.59142326785835       -3.30433559300243
O           -9.30950697341696       -5.25823129082990       -2.83892496288353
C          -10.61448619359624       -5.96576117849913       -5.35945093224472
C           -9.98604337307100       -5.03997239370114       -6.39092091413698
N           -9.22156801740761       -5.68275566476478       -7.28113203781055
O          -10.15300097384669       -3.82420066105239       -6.38483077439011
H          -11.80320008175889       -5.95535687619852       -3.58701203380906
H          -11.35620108598585       -6.57887248066762       -5.87366745428410
H           -9.83093126898979       -6.61432716934292       -4.96940971588488
H           -8.82307505071990       -5.22480439997683       -8.10494704357996
H           -9.20838115252951       -6.68853256622969       -7.28905849996383
H          -12.01351500000000       -4.51557200000000       -4.57969000000000
N          -10.39758787122180       -3.29595179365909       -3.04140804589865
C           -9.51000000000000       -2.51500000000000       -2.21400000000000
C          -10.26897763943493       -2.04441516471053       -0.96457129021278
O          -11.49530938619553       -2.09668971386238       -0.88825177567204
C           -9.02287703446492       -1.30626870142033       -3.03112057616234
C           -7.74656293234679       -0.68800958915981       -2.56533391340657
C           -6.96177438210639        0.18640640982617       -3.26931153183035
N           -7.18555237456166       -0.89461182004644       -1.33784635155479
C           -6.09521956727004       -0.16963170791533       -1.30605214992160
N           -5.92383658696886        0.51430256700169       -2.45037694682773
H           -8.67352424743812       -3.15849805937877       -1.92893169982218
H           -9.81327690282374       -0.54761028717047       -3.03984345431441
H           -8.88368349469583       -1.63738652276030       -4.06443176412756
H           -7.07272807741683        0.58455264918628       -4.25526075193088
H           -5.42403597447636       -0.12277057961486       -0.47323754612939
H          -11.20111224179613       -2.81398468686866       -3.41316231565920
H           -5.15633319017561        1.11844369573046       -2.69381294462268
N           -9.46797243797481       -1.57095994251434       -0.01587904062880
C           -9.94600000000000       -0.97000000000000        1.20900000000000
C          -10.00011013313453       -1.97893420948012        2.35824080243492
C          -10.72038536359231       -1.42820101573612        3.57551886876363
S          -10.80712951186808       -2.73039090335100        4.85830205074494
C          -11.42785072477881       -1.73556639108701        6.24192624582457
H          -10.95198755733158       -0.57762728800943        1.02888089675585
H           -8.98854049249383       -2.26241124608907        2.65855774425983
H          -10.52488447579864       -2.86770534884131        2.00341365989363
H          -11.74165597209323       -1.13186640345454        3.33165077076034
H          -10.18115478285453       -0.58274563299490        4.00368650753641
H          -12.38052185167694       -1.29291694384953        5.96651864511911
H          -11.55530879851195       -2.41237512583825        7.07920773222989
H           -8.47430662055057       -1.46769564676888       -0.27025578877748
H          -10.69828600826628       -0.96883886638042        6.48583549018814
H           -9.26258000000000       -0.15137300000000        1.43458200000000
C           -2.53900000000000       -1.29100000000000        1.98100000000000
C           -2.39368409495363       -1.47178513142969        0.49438606603860
O           -2.85192299541627       -2.44413291162195       -0.08648705442905
H           -3.55496025438750       -1.54930309921329        2.26590213903092
H           -1.87170324469312       -1.98862301085797        2.48437960456036
H           -2.35872700000000       -0.28800400000000        2.36778200000000
N           -1.69517211072157       -0.52190478741367       -0.16319647214507
C           -1.53600000000000       -0.56900000000000       -1.59900000000000
C           -0.06236538900116       -0.64344265281542       -2.01405095290260
O            0.33549115813219       -0.32424815030234       -3.13056635591973
C           -2.24753412572142        0.61015900414549       -2.27955215014486
C           -2.50845977291776        0.35382098221520       -3.75577743412132
S           -3.58282385157797       -1.11156348339376       -4.02742553415818
C           -3.46128415788962       -1.17586402805278       -5.83218623232937
H           -2.01249105325022       -1.50387443086008       -1.92744608323623
H           -1.63137531420442        1.50756261420196       -2.18902240334462
H           -1.37181106110169        0.30179694243329        0.32059104014994
H           -3.18894849063648        0.77327687591534       -1.75336902933012
H           -1.57204577721063        0.15748121715270       -4.27330626934310
H           -2.99931317313518        1.21212245745178       -4.21612330258019
H           -2.43726299578898       -1.38342994941164       -6.13157598411233
H           -4.12726266098727       -1.96788929072313       -6.15690641561061
H           -3.78771180897314       -0.22656762518757       -6.24597077793807
N            0.77197242332130       -1.10734656517019       -1.07982066702621
C            2.17200000000000       -1.29900000000000       -1.37700000000000
C            2.83751887816116       -0.01242261213450       -1.84116509049434
O            2.59048289730333        1.08084248737482       -1.35778171497332
H            2.28597935397713       -2.07004395483245       -2.14524349959008
H            2.67423762673390       -1.62600234218073       -0.46594084484443
H            0.41330249498177       -1.38818078447400       -0.18104383249366
N            3.77038666936218       -0.21663054813670       -2.78490271104295
C            4.53100000000000        0.86000000000000       -3.36000000000000
C            3.69230681913497        1.82896913507965       -4.19083398396167
O            4.16973430151625        2.92434414517133       -4.49102954467339
C            5.56100733407295        0.27439289467565       -4.34034826504412
O            4.82390893875071       -0.39722634047415       -5.34443538287666
H            5.03132400473062        1.42934282858370       -2.56998256393050
H            6.23874074642648       -0.42186844785110       -3.82790092516074
H            3.83741857562551       -1.09845531066958       -3.27268448429668
H            6.15463474841738        1.08528780026243       -4.77025845235040
H            5.41001520344080       -0.60579384094836       -6.09369796558348
N            2.51447773322964        1.40254841816353       -4.59958362764505
C            1.65400000000000        2.14700000000000       -5.48900000000000
C            0.81192165117590        1.19524359139037       -6.33876001701553
C            1.58152357614038        0.15538222822431       -7.14142595959809
S            0.46056972270256       -1.23714099384229       -7.50948729888765
C            0.57897682156380       -2.13001432898047       -5.92688049321440
H            2.25830613971259        2.82586987918647       -6.08688202161590
H            0.19318607568699        1.77768429575181       -7.02064327654735
H            0.14871377399339        0.66547701982624       -5.65263887830450
H            2.44317685573661       -0.24608984842461       -6.60543245168992
H            1.92156009926822        0.54242879104178       -8.10134079834724
H            2.13339351018720        0.53441002824473       -4.24653069225987
H           -0.18591973140442       -2.89713995731707       -5.93885131417794
H            1.56088806314396       -2.59058260303281       -5.86445727008726
H            0.42183221503611       -1.45137060032278       -5.09348016540198
H            0.92331000000000        2.68262200000000       -4.88294600000000
C            9.58200000000000       12.57900000000000       -8.20300000000000
C            8.20220608248154       12.14906131604824       -8.66902911921278
O            7.64739048239647       12.65755061598629       -9.64123684075496
C           10.43306137573926       13.05265430338733       -9.38376233551985
C           10.93404497783437       11.89715774567245      -10.25437806466854
C           11.94208757101612       10.99861389508147       -9.54194117469647
H           11.29182415615848       13.61673880806900       -9.01500553941994
H            9.82468636859937       13.71414445818717      -10.00446641935046
H           11.40737214024673       12.31959872069512      -11.14488118787268
H           10.08267079179173       11.30546852982404      -10.60465513408763
H            9.42688932511958       13.42047540385529       -7.52266321109491
H           12.39029222223847       10.30806854721353      -10.25168332030294
H           12.73462587036402       11.59993876303848       -9.10232659063022
H           11.46539588332131       10.41010105366254       -8.76337230882587
H           10.14187800000000       11.80788900000000       -7.67382800000000
N            7.59061962529631       11.25004034061062       -7.88909237553598
C            6.26100000000000       10.72600000000000       -8.17800000000000
C            6.16587729067030        9.28963577464214       -7.68215701373071
C            5.10530718892796        8.50985104994398       -8.44944489455442
C            5.07570222878880        7.04158702743230       -8.05242851292128
N            4.45979285322170        6.89871906091972       -6.74823471431862
C            4.33655968233397        5.73868290411780       -6.10892339715141
N            4.85244525735731        4.62511257924213       -6.60977191127941
N            3.69280591736649        5.68366295516970       -4.94891999410634
H            6.13356586265391       10.77921533960997       -9.26430440408614
H            5.96025364702765        9.27708917520493       -6.61264361063475
H            7.13186025634296        8.81196401366957       -7.85807814844179
H            5.33267573220714        8.56883030114609       -9.51370216817099
H            4.12687124739728        8.96452861755511       -8.30482188305213
H            6.10228435616265        6.66344473357631       -8.02205331401553
H            4.52619032207799        6.47414732217591       -8.81089042329458
H            8.08205631553902       10.85790665371109       -7.10115771989185
H            3.97049817571799        7.70570284138588       -6.39436593871927
H            4.77147523397480        3.77844125006722       -6.06218574474325
H            5.32601049797237        4.60622084351659       -7.49365292496342
H            3.34595280952668        6.51291832925260       -4.50201229201159
H            3.68584926592940        4.79632679371398       -4.46219590206818
H            5.54280100000000       11.40859200000000       -7.72373400000000
C           -0.14900000000000        8.73900000000000      -10.08900000000000
C            0.43179660060057        7.42967307472011       -9.55425439234572
C            0.34876410265648        6.33468934152769      -10.61530621317054
C            1.86982783089362        7.60380718734377       -9.09028428220960
H           -0.06243689371507        9.54141745690063       -9.36365405320274
H           -0.17570688396188        7.12141470145727       -8.69631100591792
H            0.96767784405745        6.58936811898683      -11.47622228427567
H            0.33643100000000        9.04219600000000      -11.01664700000000
H            0.70790427661019        5.38445027074669      -10.22749288861585
H           -0.67534967427701        6.20417808120298      -10.95976374649927
H            2.50662769695993        7.86256608576393       -9.93453667894637
H            1.92413839611817        8.39624320072606       -8.34958013887263
H            2.22999402027761        6.67508116067158       -8.66018923606173
H           -1.20123500000000        8.55514200000000      -10.30602000000000
C            5.71700000000000        8.78800000000000      -12.44100000000000
C            6.76638173406980        9.79309026913091      -12.88922705733322
O            7.76823708919919       10.01959520480167      -12.22377410315370
C            6.03314650249610        7.42463585169717      -13.08073999666503
C            5.11923225948456        6.34067798332819      -12.58559616124789
C            5.42039776103215        5.64358980656955      -11.42302519287393
C            3.97222602262255        5.99317124011408      -13.28598111135207
C            4.61190220156731        4.61468522010144      -10.98262920616383
C            3.14595703170793        4.97355550266830      -12.84945527509345
C            3.47260658315536        4.26534641452604      -11.69882594664150