899
 energy: -1375.848856451392 gnorm: 0.000927782791 xtb: 6.7.1 (edcfbbe)
C            2.22500000000000       -5.24400000000000        2.38800000000000
C            2.03625327973211       -4.14844921898124        1.33223188684628
C            1.10247833313817       -4.55913690924248        0.22605793002032
C           -0.27008924077769       -4.61871970214638        0.43633212188251
C            1.59463802723631       -4.88713703977690       -1.03193021393094
C           -1.12785220674062       -4.98877896372580       -0.58402339136791
C            0.73980096302156       -5.25818339567111       -2.05544742101592
C           -0.62537299161298       -5.30766561639027       -1.83447002116365
H            1.32851534626483       -5.36732198887977        2.98788920406499
H            3.00884370741371       -3.90197464033697        0.90122960067865
H            1.64739244728412       -3.25473830939558        1.82503766626774
H           -0.67406136178865       -4.36398811390219        1.40661064163820
H            2.65736090056793       -4.84396200256043       -1.22685489770066
H           -2.19166741287789       -4.99481594291822       -0.40608545468185
H            3.06156200000000       -4.98192700000000        3.03575100000000
H            1.14257969715607       -5.49676297077694       -3.03010835763088
H           -1.28746966182706       -5.58523926568419       -2.64134574993020
H            2.45829300000000       -6.19946900000000        1.91815500000000
C           -3.01100000000000       -7.04600000000000        2.03800000000000
C           -3.61927881470597       -5.75111367549682        2.51566818878251
O           -3.26704313739855       -5.23130061779960        3.57291292146647
C           -3.84516302210740       -7.95262239738112        1.13292029205854
C           -3.09058880492764       -9.27386439715037        0.95178918079860
C           -3.86928401706763      -10.29409917658445        0.13036892474804
N           -5.05495646389236      -10.71049571261723        0.84976811804122
C           -6.19557465310597      -11.09604564665518        0.28551609209552
N           -6.29947878304686      -11.25474094219561       -1.02700625125294
N           -7.25502051071353      -11.34914392817014        1.04865931051602
H           -2.09772547753823       -6.75382118932451        1.50575373931740
H           -3.99545497784838       -7.49690371956276        0.15399668995510
H           -2.67804400000000       -7.63711600000000        2.89112500000000
H           -4.81628848186086       -8.13436591504834        1.59199792755914
H           -2.85512329805594       -9.69849195145208        1.92926062261695
H           -2.14418972060157       -9.07705325708543        0.44784940466435
H           -3.22605309815802      -11.15412291655001       -0.08390262323190
H           -4.15542330144356       -9.83241856806446       -0.81597347878087
H           -4.97766842160600      -10.73051385122908        1.85557686007307
H           -7.23080020624188      -11.29180087523639       -1.43399221836851
H           -5.52855603817127      -11.04576289235323       -1.63694478271085
H           -7.22314647446556      -11.25054933082194        2.04766974147638
H           -8.12056127420294      -11.62695695629028        0.61765660995467
N           -4.53647793689356       -5.16980584650874        1.71757358165477
C           -5.02100000000000       -3.84900000000000        2.05500000000000
C           -6.05450444999888       -3.90185475455667        3.19609940791742
O           -6.16714865552007       -2.98214798664657        4.00401345341068
C           -5.69489213679821       -3.13178462068440        0.89294324545139
S           -7.31623016764573       -3.84548265034192        0.48646873014993
H           -4.17605151994800       -3.26952544913769        2.43163094376600
H           -5.06800193324240       -3.12132050265881        0.00710898051236
H           -5.89916125873829       -2.10345946522440        1.19424282755335
H           -6.88881035574490       -4.79118512711027       -0.41826757650785
H           -4.73418576703756       -5.53013131845379        0.79557855089836
N           -6.83799972031351       -4.97236244410154        3.14900178210809
C           -7.93600000000000       -5.24400000000000        4.05000000000000
C           -8.88104984158116       -6.27649216170970        3.44693998872644
C           -9.79937528254632       -5.65076826523136        2.40581521684191
S          -10.58439306689143       -6.90273132948667        1.33214106368383
C           -9.61530614658609       -6.65772076799054       -0.19157556571632
H           -8.46063525230567       -4.31119844911325        4.27235197381669
H           -9.48402726573544       -6.71576036113824        4.24073954220868
H           -8.29669194724670       -7.07238000977442        2.98479259385693
H           -9.24869018683626       -4.98663370143861        1.74349228556964
H           -6.67730349520307       -5.64292453322603        2.41002454965332
H          -10.60206567717248       -5.09443506656589        2.89041691025386
H           -8.57388416736940       -6.88624983607760       -0.00246381962428
H          -10.03576563806217       -7.32636253983558       -0.93362922717801
H           -9.72117785293440       -5.62993943377076       -0.52589445622800
H           -7.50125600000000       -5.61037700000000        4.97998200000000
C           -8.18500000000000       -0.99100000000000       -8.35200000000000
C           -8.35929980477924       -0.78511626555185       -9.84177797309795
O           -9.28098697400594       -1.29433705616351      -10.47485790302858
C           -7.26647119946317       -2.17690816002169       -8.02761186665797
C           -5.84346194824706       -1.94246289495799       -8.53148126983771
C           -7.26947840334599       -2.40016385974227       -6.51898875897566
H           -7.79427289273080       -0.08542298562231       -7.88785425924361
H           -7.66342509034361       -3.06947938869601       -8.52510873086894
H           -5.21907306836700       -2.78878490917106       -8.25416011710835
H           -5.83140371685239       -1.87241601243283       -9.61651126947223
H           -5.42266086055981       -1.03647186354059       -8.09997306849246
H           -6.95601418817206       -1.49677391554635       -5.99896664121681
H           -8.27160713022337       -2.67390699276177       -6.19780456927155
H           -6.59452996475738       -3.20975279753427       -6.25758844732556
H           -9.19959400000000       -1.18358100000000       -8.00327100000000
N           -7.47113325634517        0.04335625415062      -10.42207642770954
C           -7.41400000000000        0.21000000000000      -11.85800000000000
C           -6.74532682705198        1.53723697493968      -12.22977027874577
O           -6.51224054660616        1.63546186947577      -13.61431147013268
H           -8.43913743444251        0.15491295770277      -12.23369618448150
H           -5.76033611327154        1.59705205019334      -11.75844278823569
H           -7.35396858385164        2.37550768276569      -11.87333700708993
H           -7.36045036304763        1.69321405298198      -14.07378588239712
H           -6.85682900000000       -0.61921300000000      -12.29396600000000
H           -6.67178463959331        0.35354514948385       -9.89032118202328
C           -3.70800000000000       -0.05600000000000      -15.39700000000000
C           -2.58839904998828       -0.55577560818639      -14.49800069230619
O           -1.41133466673046       -0.57067065400492      -14.84460207426128
C           -3.71633605021107        1.47158993549677      -15.40425767723438
H           -3.50364368616722       -0.41578352429158      -16.40625833237949
H           -4.05540946084679        1.86039893406908      -14.44855803416945
H           -2.71269005711940        1.84131512451720      -15.60556683887187
H           -4.38376093324592        1.83303818089855      -16.17960888123947
H           -4.66965000000000       -0.43690600000000      -15.05314000000000
N           -2.97740258898523       -0.99418691687397      -13.27829301733636
C           -2.04000000000000       -1.41100000000000      -12.24600000000000
C           -1.67779794109392       -2.89400117861716      -12.36451286660707
O           -0.67894485102125       -3.36153022196214      -11.83004678677642
C           -2.59608765344733       -1.07582821271444      -10.85819805315413
C           -2.97880196278437        0.39578182118043      -10.70674823462116
S           -1.64347610026675        1.52529687704484      -10.15363219730430
C           -0.57062974657291        1.66210834133249      -11.58751580972930
H           -1.09670290704255       -0.87635604135547      -12.42030345672532
H           -1.84302681662459       -1.33802416715630      -10.11432526300452
H           -3.48181632713816       -1.69266979198812      -10.68351747812173
H           -3.71743285847409        0.50012347870098       -9.91584478164808
H           -3.94689104574581       -0.89543171897273      -13.00998651659507
H           -3.37347566405250        0.80616610107083      -11.63447454323280
H            0.00516723287168        2.57646097509647      -11.47207822831737
H            0.12976081992666        0.82913378003811      -11.63967882367689
H           -1.16686071847972        1.71189627406151      -12.49453874731515
N           -2.57214195968189       -3.61381748007311      -13.04740274519500
C           -2.51800000000000       -5.04100000000000      -13.24700000000000
C           -1.09595698039677       -5.53708674320688      -13.50933323129732
O           -0.37564483698032       -4.96546837120507      -14.33325506126666
C           -3.37237242044742       -5.39365038033772      -14.47346592944807
O           -3.37433784493703       -6.78949836752622      -14.65479607949822
H           -2.92743355115717       -5.53829759354075      -12.36093755481095
H           -2.94227716079388       -4.88740379368895      -15.34792748418753
H           -4.38974928443352       -5.02587826083533      -14.29653770019824
H           -4.05738914980591       -6.99813994942114      -15.30950197179291
H           -3.32588331619695       -3.11530680156566      -13.50016033380403
N           -0.72913197923107       -6.67633431620998      -12.92642982887054
C            0.56600000000000       -7.25200000000000      -13.23700000000000
C            0.55830955577338       -7.94556955369051      -14.60667690114518
O            1.62056187119303       -8.21425338473981      -15.17345250073200
C            0.80233183578160       -8.28149944329230      -12.13507930236165
C           -0.61222674801239       -8.77186676983103      -11.85354716333978
C           -1.45376109208920       -7.50113113085798      -11.96627737201931
H            1.23369275828653       -7.79152126341340      -11.26126971160288
H            1.47989401770553       -9.06478471098936      -12.46714759008337
H           -0.69003658190110       -9.21117967871732      -10.86706263967561
H           -0.91510411193112       -9.50291681733382      -12.60216390181959
H            1.33756134941886       -6.47471176440847      -13.26495027874066
H           -2.46497249146805       -7.70733478501870      -12.31598572281002
H           -1.49127034303888       -6.98714504993195      -11.00379836638489
N           -0.62974057289900       -8.26599424367917      -15.10325426724645
C           -0.79300000000000       -8.98500000000000      -16.35300100000000
C           -2.14223368901811       -9.70193059213867      -16.37386242120026
C           -2.32852981655577      -10.60476379503437      -15.18530362280074
C           -1.71637520292602      -11.85172542448456      -15.12973303242264
C           -3.12018918279838      -10.20911201563733      -14.11567140919598
C           -1.91623307917075      -12.69585772766741      -14.05546106264882
C           -3.33502774872399      -11.04831161530526      -13.03725826975715
C           -2.74794570660639      -12.30678380376819      -13.00946651414775
O           -2.96393760017247      -13.18277416744287      -11.98873809595644
H            0.03688305776746       -9.69310003439299      -16.42603170526856
H           -2.19889367470424      -10.28420393759833      -17.29339475135943
H           -2.93384894955043       -8.95472138015039      -16.38191685983318
H           -1.08328183141456      -12.17246251254883      -15.94324405440264
H           -3.58550783184317       -9.23530787300380      -14.12348589960880
H           -1.45011577481967      -13.66746418628001      -14.01324870820407
H           -3.96455533377578      -10.72577263732749      -12.22032544628787
H           -1.47830187671195       -7.91830833841353      -14.67330808628469
H           -3.67784791883272      -12.85312758650647      -11.42304618780335
H           -0.71456600000000       -8.28839700000000      -17.18768100000000
C           -2.57600000000000       -3.35800000000000      -18.79900000000000
C           -2.83059893100773       -2.76724000530974      -20.17457529393779
O           -3.35340569865447       -1.66970711318679      -20.35264186976927
C           -1.10191038330482       -3.13978929323231      -18.43997763440012
C           -0.82766144699497       -3.40509895688290      -16.96442637456392
C            0.56671561811244       -2.94099421822594      -16.53213962451736
N            1.63248594442541       -3.51080379695711      -17.33871672024224
C            2.08316574708412       -4.75731288631442      -17.20501672623234
N            1.39366374548509       -5.67048706380418      -16.52828905398400
N            3.11777860887533       -5.13691338086509      -17.96900974533937
H           -3.19682534669514       -2.81669824340620      -18.08329972015840
H           -0.84406652998023       -2.09932782809403      -18.65606154504270
H           -0.45234924448449       -3.77277621353086      -19.04347145469920
H           -0.94576994519950       -4.46447722674740      -16.74675728956524
H           -1.52844646865157       -2.84289023700303      -16.34480370852360
H            0.71178415767925       -3.17782218999328      -15.47148260518318
H            0.63664811631230       -1.85575549663019      -16.62445663627878
H            2.31296872397567       -2.85909148321775      -17.71407751522998
H            1.81509499434907       -6.57828284859009      -16.36207295272665
H           -2.88036800000000       -4.40461900000000      -18.80603800000000
H            0.74503789869626       -5.35360740124616      -15.81182396001372
H            3.73272414268315       -4.39728718172159      -18.28260285800885
H            3.56834361706763       -6.01313357189732      -17.75165117435618
N           -2.43279914765314       -3.55256896821273      -21.18057910875591
C           -2.42300000000000       -3.11500000000000      -22.56200000000000
C           -1.72402285333122       -4.15343531763583      -23.43170366662141
C           -1.77042914769698       -3.77629400331036      -24.91121895281425
C           -1.10729028747647       -4.85108109932690      -25.77257546203873
C           -1.18755106099851       -4.49446714912557      -27.25259051507079
N           -0.54955074021104       -5.55021566642551      -28.07686803193804
H           -1.91984271420516       -2.14251331468957      -22.62539528265179
H           -2.21841801809702       -5.11534980788723      -23.28625516661531
H           -0.68538552045467       -4.24599071261046      -23.10717053897582
H           -1.26509921135225       -2.81890745927120      -25.05007156916602
H           -2.81151035920532       -3.64874785746022      -25.21117504677292
H           -1.61114595719719       -5.80008761347136      -25.58658771559764
H           -0.06598101500528       -4.94833569721776      -25.46206276432394
H           -0.68230502306060       -3.54487947194943      -27.42789499481476
H           -2.23097659315891       -4.39132455546967      -27.54947843227568
H            0.43738317684090       -5.65244172908620      -27.81264820008082
H           -1.01890808506324       -6.45069550872679      -27.92151975499431
H           -0.60007771749044       -5.31413814842819      -29.07426226962855
H           -3.44959400000000       -2.96830100000000      -22.89768400000000
H           -1.91792905525119       -4.39195681467097      -20.96184640456422
C          -11.61600000000000       -4.26700000000000      -11.18300000000000
C          -10.59007374607139       -4.82735431360728      -10.20515795140311
C           -9.12050320151298       -4.77846849684422      -10.68307336995314
O           -8.86693443676591       -4.60329100531828      -11.88794361868499
O           -8.25679925066933       -4.94790321516490       -9.78373018525369
H          -11.80176452131478       -4.94845646346778      -12.00575233658312
H          -10.81137206289175       -5.87091263783084       -9.96417887670892
H          -10.61814239663895       -4.25359720823985       -9.27441842174845
H          -12.52374900000000       -4.07182000000000      -10.61203900000000
H          -11.23676300000000       -3.32448200000000      -11.57789000000000
C          -11.27300000000000       -5.21900000000000       -4.19900000000000
C          -10.14896705356939       -4.52976513626221       -3.45660807182545
O           -9.05905010483349       -5.07172222426990       -3.29729806990827
C          -10.70403836780899       -6.03709669304672       -5.35868452551334
C          -10.05154178148611       -5.15288664851815       -6.41364947742712
N           -9.21412611519893       -5.80606468643607       -7.22832335979137
O          -10.26499562006748       -3.94580639005977       -6.48841536975126
H          -11.76959949025790       -5.89363665955663       -3.49732398725665
H          -11.49917677940451       -6.60247901442358       -5.84627042058607
H           -9.95129023000836       -6.72802901642071       -4.98388820430612
H           -8.82276984371510       -5.36444654870950       -8.06386034162518
H           -9.14608711499121       -6.80829229800718       -7.17816250828186
H          -12.01351500000000       -4.51557200000000       -4.57969000000000
N          -10.45265568736557       -3.34113061874162       -2.93216120194856
C           -9.51000000000000       -2.51500000000000       -2.21400000000000
C          -10.25455183234643       -1.82362987508167       -1.07543693243370
O          -11.44235149951733       -1.51954641444112       -1.16920567665178
C           -8.90427030218360       -1.46314844727139       -3.15791264556667
C           -7.69630438846887       -0.79101736181827       -2.59948679531060
C           -7.19497694581534        0.43892555135716       -2.93180604230867
N           -6.86235213553408       -1.38542550480526       -1.69470318938575
C           -5.88504086221807       -0.53843614878346       -1.49617612514826
N           -6.04618849405793        0.58993734430781       -2.21235165808301
H           -8.71267694681278       -3.15783753124404       -1.83270480954759
H           -9.65939242352898       -0.71524769065412       -3.41220650939984
H           -8.62707959901063       -1.97834660009704       -4.08324620603264
H           -7.56191881843170        1.18698640711204       -3.60206202089577
H           -5.05213232895031       -0.71467764634255       -0.84728705469762
H          -11.35800457433548       -2.92180025580100       -3.08896478086192
H           -5.40514519065907        1.36158768205883       -2.28961536923377
N           -9.48751418238574       -1.57120486551231       -0.02128767491397
C           -9.94600000000000       -0.97000000000000        1.20900000000000
C           -9.97931100669002       -2.00360014207480        2.33354206019455
C          -10.40434379574421       -1.39344410380214        3.65651401791565
S          -10.66336282862057       -2.72151418355706        4.88643824810384
C          -10.86192866060230       -1.70287114622061        6.37408865374208
H          -10.94624814032598       -0.56949832077767        1.02741870949538
H           -8.99106639778616       -2.45293983923045        2.44689858555380
H          -10.68226126766338       -2.79055385713239        2.05528096779236
H          -11.34521853272227       -0.84992818808873        3.55623097090052
H           -9.63357641391772       -0.72963632055029        4.04944630388590
H          -11.69565864891405       -1.02134096052529        6.23327388295673
H          -11.06600521834033       -2.38332137184992        7.19292840896474
H           -8.52589426259880       -1.89480303732474       -0.05703624323289
H           -9.94035404278343       -1.15822380877845        6.55810803147547
H           -9.26258000000000       -0.15137300000000        1.43458200000000
C           -2.53900000000000       -1.29100000000000        1.98100000000000
C           -2.39670369152764       -1.48007928695727        0.49427396166260
O           -2.86067542218169       -2.45506528184788       -0.07951169181364
H           -3.55605694747328       -1.54389743628952        2.26823577457535
H           -1.87365060705834       -1.98937284112990        2.48608940762645
H           -2.35872700000000       -0.28800400000000        2.36778200000000
N           -1.70735500963207       -0.52724737681162       -0.16476590333424
C           -1.53600000000000       -0.56900000000000       -1.59900000000000
C           -0.13592326111808       -1.00886968277609       -2.03109173184587
O            0.11995565779949       -1.28001902790076       -3.20013362200358
C           -1.85054428028609        0.80643940898792       -2.21503521441997
C           -2.06904189096497        0.73413497013172       -3.71866448101954
S           -3.55718369918013       -0.26261322989831       -4.14096894024490
C           -2.97978845060953       -1.05669739955468       -5.65695136859621
H           -2.24958008679781       -1.30569874722307       -1.99017450595184
H           -1.02126090995812        1.49025574389252       -2.01776348702160
H           -1.40746209054192        0.30472879887369        0.32060960473661
H           -2.75129229541342        1.19324117457698       -1.73676292218504
H           -1.22466026968100        0.24839686301753       -4.20291658227902
H           -2.20682539732287        1.72935841831652       -4.13913499703126
H           -2.08478879908215       -1.63211261172243       -5.43308508544602
H           -3.77877389068798       -1.71369226967947       -5.98852851965150
H           -2.77109071683575       -0.30356984260231       -6.41306921931531
N            0.78264409205770       -1.07508295285984       -1.05884344277365
C            2.17200000000000       -1.29900000000000       -1.37700000000000
C            2.82143567210612       -0.01680776544780       -1.87603338182944
O            2.47396788382071        1.09033860148147       -1.49410237549090
H            2.22646710987502       -2.07465450202926       -2.14378631758357
H            2.69135771835396       -1.63898466397425       -0.47990614209037
H            0.55537610450622       -0.73150279693912       -0.13892303696334
N            3.82512231853630       -0.22885125608523       -2.73659244662836
C            4.53100000000000        0.86000000000000       -3.36000000000000
C            3.60732943356412        1.85106513101840       -4.06953594882889
O            3.92186771666900        3.03836253621611       -4.12931174229514
C            5.48363682449074        0.27239431231237       -4.41127745352420
O            4.69460099662992       -0.53116175724190       -5.27058355662984
H            5.09774909701860        1.42263406143305       -2.60971480669821
H            6.25160851250653       -0.33548417996912       -3.91698842567095
H            3.93976575733152       -1.13126239507965       -3.17641872149120
H            5.97030605426354        1.08128243439671       -4.96469702950840
H            5.24514227701835       -0.89033474904779       -5.97191355877621
N            2.51593233964537        1.35546708447908       -4.63255470131510
C            1.65400000000000        2.14700000000000       -5.48900000000000
C            0.99941753550775        1.27921799248538       -6.55553766525396
C            2.02680131813924        0.77724571031828       -7.56952293913204
S            1.23026998410050        0.09741427154521       -9.08288779614616
C            1.36389409491104       -1.68004637601166       -8.79378189285019
H            2.27951518505102        2.90412642576310       -5.97325143205865
H            0.25285475713036        1.86083594187343       -7.09507274881863
H            0.49823062304410        0.42597157409832       -6.09815568262293
H            2.67519569918220       -0.00654595615450       -7.18294357820992
H            2.65692233154824        1.59141744850280       -7.92841180739955
H            2.34678025707762        0.36091117372634       -4.60607007322593
H            0.93800245462180       -1.92323658967824       -7.82602997207802
H            0.81172091240605       -2.16261091804130       -9.59769691526023
H            2.40964529872335       -1.96879165148745       -8.86523461502503
H            0.92331000000000        2.68262200000000       -4.88294600000000
C            9.58200000000000       12.57900000000000       -8.20300000000000
C            8.13511782208901       12.26940166922488       -8.52655810780749
O            7.47643553365773       12.97965513153023       -9.28453049486092
C           10.33562534752257       12.89288770965530       -9.50260384416326
C           10.45352503803155       11.67717585808493      -10.42476170264821
C           11.30793163378614       10.55352979260524       -9.84727332934872
H           11.33485703824476       13.26136813285697       -9.26394761847579
H            9.79461815136924       13.67746981775820      -10.03529935887061
H           10.89712776477726       12.00186614085429      -11.36964895024857
H            9.45798879630876       11.29294551180615      -10.66439854101406
H            9.57909276643751       13.48094665368106       -7.58534718005884
H           11.36580401338110        9.73789313933255      -10.56413976912991
H           12.31368468520099       10.90947023544362       -9.63712327930125
H           10.87562057628579       10.15085884042406       -8.93647302873880
H           10.14187800000000       11.80788900000000       -7.67382800000000
N            7.59974804282284       11.22477570067950       -7.88935498664956
C            6.26100000000000       10.72600000000000       -8.17800000000000
C            6.17693984443423        9.30509035665670       -7.63777253511986
C            4.96283979640872        8.54227467591644       -8.15011706597588
C            4.96450636298136        7.10950711013796       -7.63180727140897
N            4.53104293919586        7.07168727895410       -6.24776055404947
C            4.48804184130160        5.95931694286904       -5.51720428292697
N            5.02787232829225        4.82943173350700       -5.95665534392206
N            3.96245285951229        5.97831508522819       -4.29826866951282
H            6.10936260064607       10.75051284693745       -9.26314987469238
H            6.17151641775710        9.33355804000260       -6.54826537151085
H            7.07160610992526        8.77104908462836       -7.96744170212223
H            4.98549576702813        8.51266730113022       -9.24038509094909
H            4.04687698737198        9.05384329708393       -7.85663158430316
H            5.97813369884548        6.70679607817142       -7.71874904876656
H            4.30728242909956        6.49743899950827       -8.25731578780382
H            8.19791319817024       10.62721335968575       -7.34065330857676
H            4.06755942811038        7.89814766487808       -5.90214103216331
H            4.88541443245902        3.99808226979768       -5.39676203578633
H            5.40498715738897        4.74263588291913       -6.88199413684720
H            3.50839042628323        6.79768502571201       -3.93565916786844
H            3.88102474928651        5.09856053696061       -3.80797648132971
H            5.54280100000000       11.40859200000000       -7.72373400000000
C           -0.14900000000000        8.73900000000000      -10.08900000000000
C            0.41241210464024        7.40899966485830       -9.58913565850941
C            0.07873590007468        6.29932040673466      -10.58183457727891
C            1.91508605589146        7.48249449702657       -9.36813906169012
H           -0.04541773429592        9.52767696964688       -9.35258354064303
H           -0.07123039261570        7.16929995057041       -8.63637164748617
H            0.56541731073462        6.49508341635310      -11.53678183248235
H            0.33643100000000        9.04219600000000      -11.01664700000000
H            0.43261576745417        5.33241730185732      -10.23233089015500
H           -0.99362106423620        6.22717121266125      -10.74943588297823
H            2.43380958803614        7.67972978502513      -10.30564451040332
H            2.15037420626225        8.27351672996358       -8.66469928808906
H            2.27670219543277        6.53154536101272       -8.98899873707264
H           -1.20123500000000        8.55514200000000      -10.30602000000000
C            5.71700000000000        8.78800000000000      -12.44100000000000
C            6.78888140777425        9.73511073643170      -12.94969112139980
O            7.85265296875563        9.87497436403950      -12.35478012751462
C            5.99510306043808        7.36667537030134      -12.95712661424598
C            4.99814793328750        6.38824364395085      -12.40630877879506
C            5.20451929798609        5.77996708559303      -11.17571021172552
C            3.84254127755098        6.07976112888675      -13.11103918610059
C            4.29127163178966        4.87532603683347      -10.66661417836554
C            2.91951283680728        5.18237325847419      -12.61148062317800
C            3.14647722711950        4.56312546019720      -11.38745531857081