899
 energy: -1379.453301818553 gnorm: 0.000983409477 xtb: 6.7.1 (edcfbbe)
C            2.22500000000000       -5.24400000000000        2.38800000000000
C            2.02104919459089       -4.14433593905556        1.33942185144305
C            1.12157261045800       -4.57326981595969        0.21115509083286
C           -0.25130253484636       -4.69207873790424        0.39552693973005
C            1.65000137494973       -4.86178213977210       -1.04155356307321
C           -1.07454455806619       -5.08247818484172       -0.64607546347191
C            0.83089503723625       -5.25481601533804       -2.08586645648707
C           -0.53474841283850       -5.36305269842344       -1.89043135898000
H            1.33287824683809       -5.37517482320265        2.99331358404264
H            2.99310605296195       -3.86129569965801        0.92993457677138
H            1.59813157245208       -3.26824223107563        1.83673448013463
H           -0.68212779493919       -4.46584003729629        1.36153144697621
H            2.71178903735136       -4.76517705263697       -1.21537999508651
H           -2.14071649209399       -5.14088374657037       -0.49330868031309
H            3.06156200000000       -4.98192700000000        3.03575100000000
H            1.26162471183680       -5.46762569051856       -3.05402154890381
H           -1.17401267733551       -5.65825139261397       -2.70882761959311
H            2.45829300000000       -6.19946900000000        1.91815500000000
C           -3.01100000000000       -7.04600000000000        2.03800000000000
C           -3.62978302113841       -5.76101470493699        2.52892533540532
O           -3.30140892445967       -5.25732459121996        3.60174734029538
C           -3.84508619000746       -7.94091151489969        1.12250705918485
C           -3.07094264601260       -9.24232444812443        0.89248454382285
C           -3.83707038429765      -10.23812877213378        0.03294554426482
N           -5.01798863961772      -10.69774586314218        0.73538341319972
C           -6.11477482513507      -11.15754118663171        0.14449401976419
N           -6.15565436638653      -11.36221692395539       -1.16706575012760
N           -7.18866222385273      -11.44892952908658        0.87353043383306
H           -2.10144782974070       -6.74416625154084        1.50677234227148
H           -4.03024066801243       -7.46040650847760        0.16087160739466
H           -2.67804400000000       -7.63711600000000        2.89112500000000
H           -4.80313164932640       -8.15327532464611        1.59637980963070
H           -2.82528143129832       -9.70101389841805        1.85209781809449
H           -2.13132568263142       -9.01169604975801        0.39129113054394
H           -3.18558556901315      -11.08185830712124       -0.21703601998794
H           -4.13268845403165       -9.73880854805253       -0.89189883322917
H           -4.96967267771296      -10.69093287918637        1.74306322232862
H           -7.06901352743649      -11.45164659238146       -1.59937905164427
H           -5.38241715847922      -11.10060451451904       -1.75423179644087
H           -7.20068781021501      -11.32519799998633        1.87026718762094
H           -8.02600181090535      -11.76732564294204        0.41549126365085
N           -4.54641055806758       -5.17642117076016        1.72890313513775
C           -5.02100000000000       -3.84900000000000        2.05500000000000
C           -6.14184573443870       -3.85413749339853        3.10632126446258
O           -6.39809890200739       -2.84754719515547        3.76255522396854
C           -5.56185888067380       -3.11192075694980        0.83677082099389
S           -7.15520124535785       -3.80026801112992        0.27549896374356
H           -4.18971573852287       -3.29587086409404        2.50160573275271
H           -4.86369974359557       -3.18084707131720        0.00518528438456
H           -5.73641354381266       -2.06534195435323        1.07644328543636
H           -7.88256564307802       -3.26916808537041        1.25041483449161
H           -4.69018608028641       -5.50405599940914        0.78136928804634
N           -6.84592526630908       -4.97912177775707        3.13874391499600
C           -7.93600000000000       -5.24400000000000        4.05000000000000
C           -8.88182581048754       -6.28389944052220        3.45718060481136
C           -9.73116158730891       -5.69994699157532        2.33642597913971
S          -10.56718208755792       -6.98737208093408        1.34650075178675
C           -9.40188337495585       -7.11981030009504       -0.04894756166885
H           -8.45711019509022       -4.30797803363187        4.26246925802334
H           -9.53735297877343       -6.65862476325065        4.24210383529841
H           -8.29876397456988       -7.12173635068913        3.07337271989673
H           -9.13217452918857       -5.12409821117483        1.63408700295205
H           -6.51634183980284       -5.75131509924617        2.57490679843254
H          -10.51749332560007       -5.06559363093526        2.74581340835142
H           -8.43464074285235       -7.44266566123985        0.31831882053902
H           -9.83196676138341       -7.85642995063054       -0.71795046571300
H           -9.32669277106410       -6.16519226027313       -0.56414938109987
H           -7.50125600000000       -5.61037700000000        4.97998200000000
C           -8.18500000000000       -0.99100000000000       -8.35200000000000
C           -8.36237110302443       -0.78229052903424       -9.84089862926106
O           -9.29094415095768       -1.28254628252321      -10.47083554464849
C           -7.27456381646445       -2.18738022966333       -8.03114572263017
C           -5.85785394823452       -1.98288574657886       -8.56580862813783
C           -7.24746843089702       -2.40715224029113       -6.52103515899687
H           -7.78951741435475       -0.08752132515913       -7.88824259663142
H           -7.69499879137131       -3.07581003426609       -8.51556166848571
H           -5.24156518939032       -2.83562722758890       -8.28841566872826
H           -5.86746326842884       -1.93208842202592       -9.65205181398864
H           -5.41371898280089       -1.07729417372531       -8.15831480672528
H           -6.86521340733916       -1.52564371230508       -6.01182730736093
H           -8.25092112239452       -2.62314406994626       -6.16268303262107
H           -6.61348192318035       -3.25540840757580       -6.27672880345623
H           -9.19959400000000       -1.18358100000000       -8.00327100000000
N           -7.47059100930096        0.04215708861431      -10.42203882283240
C           -7.41400000000000        0.21000000000000      -11.85800000000000
C           -6.73741211710390        1.53433192962902      -12.22707919071243
O           -6.53060048264454        1.64959645739649      -13.61418908302704
H           -8.43878526702966        0.15974246858054      -12.23441205085083
H           -5.74112089204497        1.57472486859401      -11.77771733201535
H           -7.32863325974214        2.37494056184307      -11.84698349105160
H           -7.38645036048624        1.71358877858387      -14.05842532252823
H           -6.85682900000000       -0.61921300000000      -12.29396600000000
H           -6.66128405363028        0.33334634041661       -9.89454070088313
C           -3.70800000000000       -0.05600000000000      -15.39700000000000
C           -2.58227013956145       -0.47504273023067      -14.46730652792504
O           -1.39795669469984       -0.37553670666096      -14.77482149808606
C           -3.75733712391908        1.46850379748199      -15.49609689210206
H           -3.48132406671375       -0.46429540471226      -16.38370606079047
H           -4.12844897781827        1.90013474833329      -14.57075385596049
H           -2.76008817738417        1.85488754395014      -15.70014090551971
H           -4.41660275717852        1.76596177532949      -16.30522002147820
H           -4.66965000000000       -0.43690600000000      -15.05314000000000
N           -2.96970665849316       -0.97853727628243      -13.27465481516885
C           -2.04000000000000       -1.41100000000000      -12.24600000000000
C           -1.78313436687601       -2.91960548519440      -12.28298529605744
O           -0.95922626797322       -3.44565275650296      -11.54736195508030
C           -2.54297037352970       -0.98561236161795      -10.86350036421435
C           -2.69491401807156        0.52704121241777      -10.72816894396178
S           -1.19471317210168        1.40666603550107      -10.13890865828383
C           -0.11996878232519        1.41036620307501      -11.57494145842115
H           -1.07365044496695       -0.94299201383494      -12.46996001145156
H           -1.84025839435355       -1.35231994036816      -10.11585948722608
H           -3.50886098719384       -1.46672328854352      -10.68948624951204
H           -3.42929365988352        0.76218892111804       -9.96222833542115
H           -3.95121815672600       -0.97654889418010      -13.03489594728769
H           -2.98879993386795        0.98682676727929      -11.67097098659558
H            0.43391518680846        0.47464755016931      -11.64882320243113
H           -0.70277888379374        1.57719054546741      -12.47754125643299
H            0.60112976059995        2.21470512527445      -11.45102912673431
N           -2.56773564153845       -3.60387628950347      -13.12173432635007
C           -2.51800000000000       -5.04100000000000      -13.24700000000000
C           -1.09207882536197       -5.53173873391430      -13.50501939727799
O           -0.35728649908590       -4.92633884475958      -14.29147414076294
C           -3.40351699348138       -5.45368154124104      -14.42949546607485
O           -3.41743712569010       -6.85704042226180      -14.54520356448840
H           -2.89981379425448       -5.48165145770163      -12.32056249454626
H           -2.99501109961536       -4.99663328640089      -15.34167974562802
H           -4.41342245637679       -5.06970907281703      -14.24640078750024
H           -4.15168111191147       -7.09770947409552      -15.12841625107021
H           -3.11736819064119       -3.08608086848323      -13.79133406105685
N           -0.72891923126565       -6.67390230625263      -12.93061162116198
C            0.56600000000000       -7.25200000000000      -13.23700000000000
C            0.56626821241038       -7.91100446684816      -14.62580664992726
O            1.62548830091247       -8.11870705243820      -15.21860321349634
C            0.78206959356906       -8.30302294039732      -12.15193849369101
C           -0.63861475644980       -8.77967211883972      -11.87724272897549
C           -1.47153048747273       -7.50296096145479      -11.98882442530941
H            1.21400008273674       -7.83384532984960      -11.26814325865754
H            1.44684587123898       -9.09322872463502      -12.49269915791387
H           -0.72335152310059       -9.22153786464937      -10.89265817790696
H           -0.94670902004552       -9.50730099178477      -12.62694791479739
H            1.34071859635075       -6.47893364215727      -13.24229255981864
H           -2.47950768435128       -7.69986050149607      -12.35258382403310
H           -1.52364400697472       -6.99249429481522      -11.02467531665607
N           -0.62083819639668       -8.27515127337459      -15.09959959757018
C           -0.79300000000000       -8.98500000000000      -16.35300100000000
C           -2.14703160418493       -9.69297730627571      -16.37330835308488
C           -2.32306421438164      -10.62704035027317      -15.20729700005438
C           -1.72064613601506      -11.88011472663883      -15.19733607850995
C           -3.09356624352131      -10.25686146288991      -14.11347093250843
C           -1.90723524219011      -12.75192543476865      -14.14299848030037
C           -3.29477864551195      -11.12352174899256      -13.05412473057849
C           -2.71531049220100      -12.38547538810796      -13.07055287074690
O           -2.91472986092741      -13.28638083352476      -12.06780435581732
H            0.03135383714376       -9.69885743769966      -16.43673769831772
H           -2.22072254679066      -10.25036242610573      -17.30716173935363
H           -2.93300943859635       -8.93925271541883      -16.35329123462851
H           -1.10594077641149      -12.18337414728448      -16.03142408155841
H           -3.55263830077316       -9.28074454476273      -14.08571112568487
H           -1.44898752025850      -13.72816229133796      -14.13676169687295
H           -3.90742144478556      -10.81892854231274      -12.21763404574000
H           -1.46980967058681       -7.96758015123540      -14.64214892163069
H           -3.61284067412014      -12.96702504066641      -11.47723630984870
H           -0.71456600000000       -8.28839700000000      -17.18768100000000
C           -2.57600000000000       -3.35800000000000      -18.79900000000000
C           -2.83412008557738       -2.77127643347020      -20.17539494074958
O           -3.37036799927291       -1.68018790376494      -20.35356317526993
C           -1.10578746967508       -3.12437097196351      -18.43248642117972
C           -0.83350927559109       -3.35491420568947      -16.94941120781774
C            0.51993823465462       -2.78691745680654      -16.50663053860411
N            1.62838092753420       -3.28311354477775      -17.30191772346883
C            2.18440440853741       -4.48255498805351      -17.14598248204179
N            1.62055694200552       -5.40954830718124      -16.38317140660116
N            3.21299184286613       -4.80657649330187      -17.94399842756004
H           -3.20532703760946       -2.81771539767468      -18.08942434993180
H           -0.85592809645585       -2.08615596626827      -18.66965638401058
H           -0.44763844848902       -3.76072490159622      -19.02302899483895
H           -0.87752178932263       -4.41760679682208      -16.71910525321569
H           -1.58319364807629       -2.83793583232954      -16.34824314154849
H            0.67385000101461       -3.01576693005876      -15.44690675045104
H            0.51324468273635       -1.69976961941043      -16.60084189297197
H            2.19679463690394       -2.60194352469410      -17.79147641915275
H            2.07203369182096       -6.30567416433506      -16.24849898812054
H           -2.88036800000000       -4.40461900000000      -18.80603800000000
H            0.92515018926356       -5.14482735976312      -15.69150875388439
H            3.71825973134614       -4.03694253033079      -18.36253303339465
H            3.76616216941920       -5.61600593568025      -17.70853484604115
N           -2.43078042979227       -3.55440024327783      -21.18131450480104
C           -2.42300000000000       -3.11500000000000      -22.56200000000000
C           -1.72369712225421       -4.15242971759298      -23.43285852967959
C           -1.77089701704461       -3.77549313575361      -24.91229528548142
C           -1.09912654823897       -4.84595236799702      -25.77237457991457
C           -1.17814333109890       -4.48984841094296      -27.25250744894899
N           -0.52272972883270       -5.53670682600697      -28.07449449321557
H           -1.91957768955262       -2.14245393095344      -22.62680025654374
H           -2.21631818967111       -5.11527111208885      -23.28756244546756
H           -0.68423417230531       -4.24263834660371      -23.11004315498343
H           -1.27076017411075       -2.81517997848838      -25.05061397010475
H           -2.81213754995779       -3.65426219410669      -25.21437296191663
H           -1.59665887391243       -5.79855078389226      -25.58781215701676
H           -0.05755886988818       -4.93542926644382      -25.46020020900378
H           -0.68441550851110       -3.53367147719347      -27.42515186813526
H           -2.22142541837280       -4.40035592038831      -27.55439256779094
H            0.46458527515341       -5.62518992432870      -27.80663580666733
H           -0.98034671413152       -6.44373305128614      -27.92197946921625
H           -0.57116097323461       -5.30021792706640      -29.07184881393611
H           -3.44959400000000       -2.96830100000000      -22.89768400000000
H           -1.89643902575969       -4.38171396094204      -20.96289909452985
C          -11.61600000000000       -4.26700000000000      -11.18300000000000
C          -10.58725683686754       -4.82612654475882      -10.20810310145475
C           -9.12032509903431       -4.76446341546172      -10.69282692689172
O           -8.87525489135643       -4.60225143578183      -11.90105183095406
O           -8.25010856887536       -4.90920498937931       -9.79582430469094
H          -11.80252680386928       -4.94779511217352      -12.00611033375202
H          -10.80143992264955       -5.87209237869332       -9.97135404226850
H          -10.61782290680595       -4.25623823119560       -9.27519916751947
H          -12.52374900000000       -4.07182000000000      -10.61203900000000
H          -11.23676300000000       -3.32448200000000      -11.57789000000000
C          -11.27300000000000       -5.21900000000000       -4.19900000000000
C          -10.19080919107734       -4.57355602617518       -3.36610862133743
O           -9.20494792441998       -5.20925794895037       -3.00422923921323
C          -10.65066111487576       -5.99849048625592       -5.35852652770131
C          -10.01855749482807       -5.09016947323355       -6.40498965601392
N           -9.18268851502155       -5.72585971715007       -7.23368031495059
O          -10.24999757556855       -3.88589049115567       -6.46291070153732
H          -11.79114135264197       -5.92983134428245       -3.54854737752802
H          -11.41414952505518       -6.59526652999538       -5.85984357908344
H           -9.87918302795942       -6.66277894944950       -4.97123367538266
H           -8.80127608799137       -5.28000505797824       -8.07212006831406
H           -9.09680975351298       -6.72683130354332       -7.18590735492341
H          -12.01351500000000       -4.51557200000000       -4.57969000000000
N          -10.39982907798808       -3.29999434100676       -3.03478001389155
C           -9.51000000000000       -2.51500000000000       -2.21400000000000
C          -10.25257115027687       -2.11371583336313       -0.92959233667805
O          -11.46363707550489       -2.28410154631530       -0.80008053871749
C           -9.08626496756060       -1.25961152606054       -2.99905565990015
C           -7.78332662985108       -0.66076565433566       -2.58427647011602
C           -6.96252535838798        0.12585691099759       -3.34741825434095
N           -7.23563883177969       -0.79035106205984       -1.33970319883240
C           -6.11753473575674       -0.10770031395640       -1.35730882650100
N           -5.91806560088945        0.47901066375351       -2.54878391565382
H           -8.64163201365456       -3.13287717432462       -1.97407621397246
H           -9.87965109634063       -0.50885499649619       -2.91491096151800
H           -9.00983458243980       -1.53354728299021       -4.05474610682030
H           -7.05210185339861        0.44969546192224       -4.36210458641736
H           -5.45052732523595       -0.01872897662843       -0.52466314702647
H          -11.26002134815421       -2.85092046389102       -3.30887244493310
H           -5.11871585111783        1.01585130182628       -2.84262544059633
N           -9.46019385397871       -1.56105843447608       -0.01844926378998
C           -9.94600000000000       -0.97000000000000        1.20900000000000
C           -9.98945770900024       -1.98491200226466        2.35309092216223
C          -10.64601710610772       -1.41802569195410        3.59843929473793
S          -10.74296558415117       -2.72418069939661        4.87535067132178
C          -11.20946167096296       -1.70310255467317        6.30035781939061
H          -10.95494868287062       -0.58175899528785        1.03676050987524
H           -8.97634463662685       -2.30073784847807        2.61426245331215
H          -10.55376637644064       -2.85488779699184        2.01189253365843
H          -11.66168331270511       -1.07753573452436        3.39132320052225
H          -10.05712404069366       -0.59964763814449        4.01324087971339
H          -12.14172782286552       -1.18984431945125        6.08422913177113
H          -11.33710856905316       -2.37844881898003        7.13870269905481
H           -8.48789356497721       -1.36534724257650       -0.31556632966381
H          -10.41300992605867       -0.99397990891485        6.50614889734610
H           -9.26258000000000       -0.15137300000000        1.43458200000000
C           -2.53900000000000       -1.29100000000000        1.98100000000000
C           -2.34364051641278       -1.49829955117284        0.50352248975177
O           -2.72668587059796       -2.51482895160090       -0.05728186549599
H           -3.57148640079429       -1.52743949318593        2.22497264188810
H           -1.90957862006101       -1.99656541094759        2.52090942326582
H           -2.35872700000000       -0.28800400000000        2.36778200000000
N           -1.69978145091156       -0.51918333920886       -0.16446466907058
C           -1.53600000000000       -0.56900000000000       -1.59900000000000
C           -0.06379734966971       -0.68176481249028       -2.01878903726784
O            0.33168973616184       -0.43453015915418       -3.15373344227761
C           -2.20408152784934        0.64140792172145       -2.27106981628130
C           -2.41760469845276        0.43681250006759       -3.76446372948535
S           -3.56073956831102       -0.96387591635989       -4.11893345467089
C           -3.02686764490079       -1.33791250077943       -5.80518190741976
H           -2.03972175038360       -1.48518252253818       -1.93826156944068
H           -1.57242964758647        1.52237401168591       -2.13675544675564
H           -1.43528248014926        0.33211692947750        0.30759341979249
H           -3.15955503833377        0.81320736745606       -1.77365077258619
H           -1.47168259903619        0.19951476997723       -4.24600324746862
H           -2.83749316576831        1.33337814389693       -4.22118097057414
H           -2.01185125006009       -1.72663017771520       -5.78412622511110
H           -3.71662151228921       -2.08318952341708       -6.18990251641223
H           -3.07375230413589       -0.43791180228213       -6.41173753002344
N            0.77650434949380       -1.09871177788571       -1.06705452218416
C            2.17200000000000       -1.29900000000000       -1.37700000000000
C            2.83991700903298       -0.01773030131893       -1.85227879799611
O            2.58936056382126        1.07875542687363       -1.37572179098935
H            2.26897242728687       -2.07427185290701       -2.14270608631172
H            2.68090476239498       -1.62614654364855       -0.46963708856738
H            0.43525300914434       -1.29631523826021       -0.14030267130730
N            3.78074800921372       -0.22577308260000       -2.78620788979097
C            4.53100000000000        0.86000000000000       -3.36000000000000
C            3.67788568635071        1.80806037773114       -4.19689259689591
O            4.13402020848393        2.91695912036860       -4.48496102161175
C            5.61657500169436        0.28767639897980       -4.27976624364228
O            4.95687267821034       -0.44384000688760       -5.29512978385706
H            4.99028419828227        1.45112773784232       -2.56023339206947
H            6.28741588050905       -0.36590383197418       -3.70847221409727
H            3.84052596224821       -1.10281638948938       -3.28443676038001
H            6.19614741458061        1.11410851128158       -4.70241461450004
H            5.61108429564929       -0.77274048976101       -5.92035426187050
N            2.49574958902072        1.37868520006314       -4.59833576957531
C            1.65400000000000        2.14700000000000       -5.48900000000000
C            1.07544088359901        1.26404610215494       -6.58748200324001
C            2.22381482298495        0.71769373788702       -7.43488118503014
S            1.74637783514039       -0.02887935529201       -9.04214386159900
C            0.62430642116151       -1.33303631960319       -8.41058646127233
H            2.29381582948990        2.90581475191211       -5.95201492832557
H            0.40718761358157        1.84478313794134       -7.22272977148511
H            0.51596099030130        0.43936139341309       -6.14883450311062
H            2.81099993165694       -0.02362982208766       -6.89272297933494
H            2.88924541464187        1.52155061294287       -7.75219632073276
H            2.12361600757029        0.49033450959484       -4.28973137539445
H            0.45419702877298       -2.00767199068618       -9.24547821480739
H            1.12389677711040       -1.85569894339991       -7.60364742413745
H           -0.30655753663078       -0.87549421394492       -8.09267782052287
H            0.92331000000000        2.68262200000000       -4.88294600000000
C            9.58200000000000       12.57900000000000       -8.20300000000000
C            8.24109140255512       12.08959677478619       -8.72595504675982
O            7.76052339201750       12.46887527118545       -9.79121734493121
C           10.45921032142677       13.10520125793610       -9.34067710434137
C           10.98753711752044       11.98820318746005      -10.24462300808202
C           11.98819624698679       11.06749458721142       -9.55116276836765
H           11.30364109467816       13.65829110192022       -8.92573336213934
H            9.86379507849009       13.78728905034479       -9.95092409636710
H           11.47379347238519       12.44656150180930      -11.10953851206133
H           10.14649904139466       11.40245084665748      -10.62599283897616
H            9.37102679154920       13.39432208047596       -7.50740629470752
H           12.43469735464991       10.39265562352882      -10.27773316914244
H           12.78231453941927       11.65076079466933       -9.09096571267847
H           11.50663797842579       10.45768637792820       -8.79192304251685
H           10.14187800000000       11.80788900000000       -7.67382800000000
N            7.58358213057604       11.27099909654976       -7.89484511635486
C            6.26100000000000       10.72600000000000       -8.17800000000000
C            6.18557911608581        9.29424149859466       -7.66084460553867
C            5.14621566692352        8.47597382129310       -8.41789914751787
C            5.14313596266586        7.01868049757635       -7.97842365037090
N            4.54213893177920        6.90373146750823       -6.66500691927357
C            4.51854266727492        5.78266163199923       -5.94791862811264
N            5.17546561101680        4.69920647692212       -6.34688535074569
N            3.89878114740600        5.75596423081134       -4.77554302822931
H            6.13417178994805       10.76397434600844       -9.26344222839928
H            5.97158950256311        9.29357155145033       -6.59307418852497
H            7.16185951318439        8.83105468312862       -7.81915989225654
H            5.38034518740950        8.50240347873696       -9.48187187327776
H            4.15689637006395        8.91243968613787       -8.29314290793524
H            6.17570396530728        6.65779016759553       -7.94797140553803
H            4.59991894727384        6.41514707986284       -8.71658288985874
H            8.01103229537974       11.00338050700696       -7.02178803816995
H            3.97372009468052        7.68229179307232       -6.36849344266533
H            5.04033942098728        3.85510374525260       -5.80344471931006
H            5.56105170931199        4.62929236632230       -7.27054567356332
H            3.39588392811698        6.55205792617617       -4.42634809015627
H            3.86511092880266        4.87268123253775       -4.28374295875723
H            5.54280100000000       11.40859200000000       -7.72373400000000
C           -0.14900000000000        8.73900000000000      -10.08900000000000
C            0.43021674918806        7.43083212693182       -9.55242235550899
C            0.25934891706230        6.31845460596335      -10.58282036933172
C            1.89692254420362        7.58291090102915       -9.17664134378831
H           -0.06108848669149        9.54098530671100       -9.36324856765819
H           -0.13236836412126        7.15417322991446       -8.65424012440665
H            0.79286119843647        6.57177943212513      -11.49721688964367
H            0.33643100000000        9.04219600000000      -11.01664700000000
H            0.66543163797969        5.37505993563703      -10.22225971127255
H           -0.78969166831198        6.16676497129563      -10.82785126141843
H            2.49174100626712        7.81681787798620      -10.05797204227342
H            2.00852922508121        8.38169027366258       -8.44949199538224
H            2.26828005673455        6.65138901660061       -8.75981575466086
H           -1.20123500000000        8.55514200000000      -10.30602000000000
C            5.71700000000000        8.78800000000000      -12.44100000000000
C            6.78240704958313        9.72207075451676      -12.97504863885523
O            7.87687671297598        9.82516289109654      -12.42053176713632
C            6.00948398509760        7.40113729211865      -13.04198707731905
C            5.12463461727494        6.29999164136664      -12.52489685599242
C            5.64264918292654        5.30595983181295      -11.70675528854427
C            3.79772025888999        6.19871499857140      -12.92743918572975
C            4.87582558856046        4.21589262118251      -11.33580138644367
C            3.01985112487305        5.11984409295284      -12.55613382227852
C            3.56302473514092        4.10149885849485      -11.77782167902952