545       
 energy: -755.540066797053 gnorm: 0.001016204816 xtb: 6.7.1 (edcfbbe)
O -0.273860 -10.878813 1.973961
O -5.631249 -16.658073 -7.926400
O -6.079856 -18.260050 -6.434741
C -0.011283 -9.849135 1.336929
C -5.264209 -17.436169 -7.062188
C 1.154247 -7.601613 1.323258
C 2.038258 -9.411137 2.628092
C 2.271467 -6.849962 1.629934
C 3.148458 -8.653599 2.929110
C 1.059394 -8.918056 1.764763
C 3.312552 -7.384491 2.381586
N 4.926519 -5.721654 1.468485
N -0.648316 -9.548504 0.197977
C -7.466198 -18.243681 -6.791858
C 4.636852 -6.679670 2.525270
C -3.845704 -17.574036 -6.598913
C -1.687667 -10.399355 -0.330969
C -2.985329 -16.366770 -6.969269
C -1.143232 -11.499620 -1.242174
C -1.558102 -16.540718 -6.459261
C -0.860337 -11.024038 -2.662545
C -0.680259 -15.322404 -6.740270
C -0.396194 -12.188099 -3.531883
C -1.116650 -14.072488 -5.975515
C -0.355496 -11.838196 -5.017548
C 0.005296 -13.039411 -5.891996
H 0.359512 -7.150068 0.748302
H 1.923444 -10.410140 3.030201
H 2.326800 -5.839315 1.255583
H 3.911718 -9.065196 3.573115
H 4.609285 -6.123174 0.588751
H 4.381116 -4.885088 1.661716
H -0.404582 -8.714418 -0.310065
H -7.884838 -17.251051 -6.627700
H -7.588752 -18.540146 -7.833597
H -7.948883 -18.964443 -6.138890
H 5.419681 -7.441436 2.516427
H 4.663153 -6.166871 3.489154
H -3.436225 -18.477852 -7.056886
H -3.852288 -17.732048 -5.520035
H -2.406840 -9.778792 -0.863362
H -2.182303 -10.869309 0.523690
H -3.413316 -15.469896 -6.523533
H -2.956584 -16.246103 -8.051716
H -1.877526 -12.305515 -1.260888
H -0.234873 -11.902320 -0.786535
H -1.103177 -17.411377 -6.935835
H -1.572339 -16.720278 -5.383280
H -0.100092 -10.241537 -2.653017
H -1.776901 -10.600999 -3.077565
H -0.665180 -15.111918 -7.809184
H 0.345445 -15.564528 -6.455052
H -1.086196 -13.016494 -3.364852
H 0.595689 -12.507942 -3.200382
H -1.417095 -14.358242 -4.967168
H -1.973612 -13.606966 -6.460154
H 0.377897 -11.045470 -5.179441
H -1.326837 -11.445018 -5.322069
H 0.240040 -12.683412 -6.895492
H 0.909708 -13.506476 -5.493278
C 1.221042 -2.266846 -6.104488
C 0.042708 -2.952241 -5.407385
C 0.515659 -3.991199 -4.428216
C 1.037968 -3.614369 -3.196185
C 0.459233 -5.343653 -4.741554
C 1.477333 -4.564768 -2.292436
C 0.902878 -6.297493 -3.841765
C 1.406897 -5.910160 -2.612544
H 0.868707 -1.609359 -6.895904
H 1.886251 -3.022382 -6.548571
H 1.771213 -1.663212 -5.382387
H -0.596824 -3.424018 -6.155345
H -0.548578 -2.195897 -4.886125
H 1.097459 -2.565341 -2.937073
H 0.055171 -5.660010 -5.693290
H 1.845327 -4.248373 -1.328887
H 0.848490 -7.343919 -4.104054
H 1.738096 -6.653057 -1.903037
C 4.674053 -2.600673 -1.771221
C 3.766882 -1.724044 -0.940571
O 3.221198 -0.727404 -1.410825
C 5.570155 -3.589725 -1.032050
C 6.341507 -4.453139 -2.029300
C 7.205467 -5.506414 -1.331633
N 8.358646 -4.928267 -0.682234
C 8.588789 -4.815511 0.628401
N 7.654341 -5.005064 1.542989
N 9.810355 -4.430911 0.999142
H 5.286304 -1.989809 -2.433940
H 3.993674 -3.155032 -2.429402
H 4.967022 -4.257565 -0.425210
H 6.269089 -3.053108 -0.391551
H 6.970733 -3.824876 -2.661307
H 5.633412 -4.968375 -2.678755
H 7.562597 -6.218273 -2.079392
H 6.614740 -6.056816 -0.601617
H 9.096195 -4.630604 -1.302079
H 7.962573 -5.170234 2.491111
H 6.684364 -5.290030 1.346499
H 10.547005 -4.329628 0.324956
H 10.050669 -4.267655 1.964768
N 3.551189 -2.122412 0.327566
C 2.594165 -1.472037 1.183025
C 3.217103 -0.397292 2.090693
O 2.500993 0.475288 2.585726
C 1.834806 -2.455056 2.061064
S 2.945723 -3.506274 3.061882
H 1.891435 -0.937968 0.535039
H 1.237937 -3.121076 1.445351
H 1.187864 -1.896877 2.740168
H 1.977293 -4.369481 3.377838
H 3.959005 -2.978699 0.675858
N 4.519913 -0.510786 2.308434
C 5.313723 0.480378 3.007430
C 6.524403 -0.138407 3.704584
C 6.243146 -0.583739 5.134636
S 5.035191 -1.946810 5.298493
C 6.059544 -3.348204 4.748693
H 4.671335 0.972876 3.738969
H 5.621935 1.219948 2.282446
H 7.310204 0.616289 3.755347
H 6.894447 -0.979667 3.118003
H 5.019581 -1.254017 1.839954
H 5.813474 0.237083 5.709621
H 7.158130 -0.913363 5.626725
H 6.960211 -3.391074 5.354064
H 5.458266 -4.237728 4.909742
H 6.287494 -3.246716 3.694628
C -1.723297 -10.160523 6.992495
C -2.194218 -11.473694 7.584962
O -1.569107 -12.092970 8.440339
C -1.040366 -10.365943 5.628880
C -1.961904 -11.022593 4.604734
C -0.546636 -9.012006 5.127042
H -0.997072 -9.721184 7.677605
H -2.569771 -9.480942 6.878381
H -0.173653 -11.022037 5.773726
H -2.889370 -10.461715 4.498431
H -1.454417 -11.055368 3.643303
H -2.171275 -12.050630 4.890107
H -0.095323 -9.120762 4.145400
H -1.367077 -8.299597 5.063688
H 0.209720 -8.623006 5.805010
N -3.382980 -11.901976 7.109503
C -3.899415 -13.238667 7.321394
C -5.418082 -13.262166 7.120202
O -5.940600 -14.564306 7.182452
H -3.625431 -13.539373 8.322184
H -3.420735 -13.942897 6.625682
H -5.656913 -12.894871 6.117831
H -5.896598 -12.606023 7.856407
H -5.831455 -14.910343 8.078167
H -3.791893 -11.380404 6.348674
C -5.932925 -16.861120 4.271738
C -5.703037 -16.201591 2.922539
O -6.275440 -16.573183 1.906428
C -7.287868 -16.431765 4.831986
H -5.121658 -16.588465 4.966774
H -5.931436 -17.941408 4.121962
H -8.065156 -16.587570 4.087395
H -7.526090 -17.015835 5.715446
H -7.268364 -15.384393 5.120538
N -4.834537 -15.167378 2.911352
C -4.525497 -14.380179 1.730115
C -3.198006 -14.777118 1.075455
O -2.714684 -14.126595 0.161529
C -4.545296 -12.888344 2.044068
C -5.949117 -12.379539 2.340464
S -7.072309 -12.544363 0.910790
C -8.234935 -13.813106 1.504715
H -5.306164 -14.602286 0.987969
H -4.137741 -12.356469 1.183028
H -3.892259 -12.681525 2.897257
H -5.910379 -11.318514 2.587360
H -6.405020 -12.926482 3.165124
H -4.405636 -14.875261 3.777014
H -8.994084 -13.910474 0.736444
H -7.723523 -14.762212 1.633372
H -8.685143 -13.487090 2.437995
N -2.629647 -15.893356 1.549378
C -1.337015 -16.340090 1.074209
C -1.445231 -16.862278 -0.346389
O -2.438217 -17.503048 -0.703473
C -0.807467 -17.457701 1.998468
O 0.575702 -17.657318 1.856250
H -0.658059 -15.480047 1.107997
H -1.287587 -18.404234 1.731818
H -1.065055 -17.214357 3.035181
H 1.056306 -17.056147 2.439059
H -3.101929 -16.439804 2.252044
N -0.427960 -16.646351 -1.158148
C -0.498745 -17.134310 -2.520556
C 0.505969 -16.271051 -3.275296
C 1.567850 -15.992218 -2.217320
C 0.760246 -15.844021 -0.926798
H -0.233487 -18.168684 -2.560293
H 0.050184 -15.331952 -3.580858
H 0.914234 -16.773184 -4.147550
H 2.135066 -15.091406 -2.431487
H -1.521542 -17.008425 -2.882562
H 2.254507 -16.834249 -2.131959
H 1.307762 -16.207878 -0.056592
H 0.475989 -14.798652 -0.758633
C -4.211383 -21.145754 2.630872
C -4.841088 -20.761169 1.288178
C -4.276291 -19.467052 0.710880
C -5.130917 -18.911316 -0.434280
N -5.324118 -19.858431 -1.513316
C -4.432470 -20.144320 -2.460726
N -3.332340 -19.425024 -2.622864
N -4.708489 -21.123177 -3.324395
H -3.167079 -21.424507 2.531913
H -4.297506 -20.311714 3.305752
H -4.788340 -21.991976 3.009756
H -5.914140 -20.632685 1.450933
H -4.696671 -21.582621 0.585243
H -3.250862 -19.623003 0.376426
H -4.253308 -18.701933 1.488855
H -4.658116 -18.003914 -0.808180
H -6.111842 -18.639387 -0.042839
H -6.099149 -20.493397 -1.400259
H -2.661380 -19.698641 -3.320025
H -3.046962 -18.734064 -1.935863
H -5.535308 -21.684797 -3.224986
H -4.047036 -21.375868 -4.037819
C 1.919417 -13.488902 9.519017
C 2.254160 -12.807257 8.199210
C 1.485500 -13.340783 6.967427
O 0.839988 -14.399939 7.047747
O 1.581514 -12.640069 5.926846
H 0.842300 -13.652332 9.563496
H 2.409146 -14.442840 9.628482
H 2.197029 -12.824863 10.319368
H 3.320822 -12.887774 7.974093
H 2.004891 -11.743402 8.260171
C 4.292701 -7.180501 7.631927
C 3.608834 -6.154205 6.739376
O 3.994942 -5.955082 5.594797
C 4.492093 -8.491170 6.876460
C 3.194474 -9.270596 6.712102
N 3.332192 -10.398822 6.006585
O 2.123270 -8.878506 7.167163
H 3.703246 -7.353097 8.532420
H 5.269987 -6.781056 7.910028
H 5.202641 -9.125454 7.407596
H 4.887589 -8.271271 5.884133
H 2.579798 -11.089142 5.937681
H 4.253765 -10.713473 5.753701
N 2.609967 -5.447937 7.292778
C 1.757104 -4.556802 6.524697
C 1.494526 -3.275996 7.295156
O 1.229543 -3.287725 8.494106
C 0.416701 -5.268129 6.252487
C -0.403651 -4.569690 5.230005
C -1.633217 -3.985209 5.366104
N 0.006315 -4.457823 3.931500
C -0.953159 -3.833568 3.301576
N -1.973008 -3.520570 4.126899
H 2.281887 -4.363223 5.586785
H -0.141474 -5.342423 7.188388
H 0.646461 -6.279931 5.905219
H -2.262624 -3.873675 6.223593
H -0.934404 -3.611712 2.255962
H -2.819987 -3.024972 3.898177
H 2.280237 -5.672688 8.219185
N 1.500731 -2.174309 6.541713
C 1.206254 -0.872883 7.082726
C 2.403084 0.088911 7.030082
C 2.291830 1.035339 5.846503
S 3.691799 2.209980 5.810777
C 3.092859 3.274672 4.465084
H 0.889823 -1.037036 8.114654
H 0.369908 -0.426201 6.518236
H 3.328963 -0.484803 6.965665
H 2.443933 0.677592 7.947418
H 1.386740 1.640194 5.924725
H 2.291657 0.505762 4.892852
H 1.844302 -2.221910 5.593912
H 2.245323 3.854718 4.819472
H 3.909770 3.933019 4.192717
H 2.807052 2.646558 3.625250
C -0.734318 -0.959532 -0.267446
C -1.008042 -2.417384 -0.149760
O -0.117687 -3.232995 0.076254
H -1.627589 -0.347083 -0.233930
H -0.067361 -0.720738 0.581922
H -0.182161 -0.759868 -1.182947
N -2.267311 -2.824281 -0.374330
C -2.632834 -4.217139 -0.297497
C -3.670152 -4.472167 0.795544
C -3.972292 -5.952469 0.941130
S -2.472982 -6.895974 1.454783
C -3.290711 -8.341243 2.169808
H -1.722977 -4.781274 -0.085999
H -3.044153 -4.579157 -1.292547
H -4.597692 -3.946960 0.558604
H -2.991836 -2.154392 -0.579192
H -3.287597 -4.093519 1.743459
H -4.317017 -6.369189 -0.003266
H -4.723617 -6.118356 1.711686
H -3.912773 -8.823348 1.421125
H -2.504337 -9.018690 2.487492
H -3.880728 -8.035355 3.030407
C -7.018127 -7.525865 -1.531266
C -6.147059 -8.577608 -0.856698
C -6.116210 -9.871361 -1.654349
S -4.899826 -11.001071 -0.881695
C -5.087714 -12.441084 -1.969708
H -7.207368 -6.687778 -0.868421
H -7.987247 -7.997646 -1.803744
H -6.549884 -7.161298 -2.440834
H -6.526937 -8.791258 0.145365
H -5.124382 -8.209293 -0.751658
H -5.795422 -9.687453 -2.679002
H -7.086985 -10.366694 -1.641764
H -4.372066 -13.174155 -1.609687
H -6.100730 -12.819409 -1.874420
H -4.855488 -12.144981 -2.986095
C -16.931839 -12.595056 -1.739056
C -15.897714 -13.561678 -2.328475
C -14.499497 -13.100707 -2.019664
C -13.698973 -12.531284 -3.002236
C -13.989648 -13.194118 -0.730733
C -12.432655 -12.062366 -2.712096
C -12.726857 -12.720828 -0.423938
C -11.940296 -12.143895 -1.413846
O -10.691485 -11.655190 -1.166474
H -16.881819 -12.632350 -0.626980
H -16.729025 -11.618514 -2.038392
H -17.937601 -12.877330 -2.039644
H -16.034945 -13.615833 -3.409550
H -16.062340 -14.558591 -1.913641
H -14.076696 -12.449223 -4.010380
H -14.589621 -13.640487 0.049576
H -11.813179 -11.615010 -3.472071
H -12.353318 -12.795807 0.588435
H -10.508788 -11.667206 -0.216964
C 9.187540 -5.050212 8.498363
C 9.566764 -5.235517 7.043696
O 9.317533 -6.254475 6.403193
C 7.863727 -4.267683 8.523044
C 7.364376 -4.011557 9.935676
S 6.031980 -2.755202 9.973761
C 4.694993 -3.653255 9.141226
H 9.961588 -4.483891 8.982265
H 9.066775 -6.020179 8.977964
H 7.109836 -4.822958 7.960623
H 8.004277 -3.301344 8.034891
H 8.149733 -3.582006 10.556086
H 6.987597 -4.915951 10.413236
H 3.778530 -3.100068 9.323110
H 4.883286 -3.704833 8.073117
H 4.612434 -4.646415 9.572086
N 10.140913 -4.160177 6.487131
C 10.563128 -4.197990 5.113365
C 10.918155 -2.777169 4.485450
O 11.218715 -2.995287 3.129264
H 9.764968 -4.652597 4.522218
H 11.455404 -4.823471 5.001992
H 11.701668 -2.473930 5.022943
H 10.055239 -2.108028 4.593745
H 11.655137 -2.209997 2.774788
H 10.411090 -3.376818 7.060844
C 9.353456 -9.085385 3.354878
C 8.291903 -7.997215 3.322360
C 7.230968 -8.286317 4.384706
O 8.856246 -6.719189 3.541100
H 10.072859 -8.833344 4.351934
H 8.940051 -10.075500 3.483665
H 10.100368 -9.056274 2.648637
H 7.834147 -7.944343 2.327538
H 6.665713 -9.180458 4.134314
H 7.717458 -8.437434 5.347602
H 6.551679 -7.442886 4.478697
H 9.100993 -6.668812 4.482752
C 6.205617 -14.269837 -1.809373
C 6.914670 -13.253242 -2.645860
O 7.099435 -13.396442 -3.852507
C 4.714539 -14.348782 -2.168287
C 3.957098 -13.096033 -1.829764
C 3.838241 -12.066891 -2.755978
C 3.343432 -12.958218 -0.590294
C 3.106673 -10.932112 -2.457099
C 2.611474 -11.823417 -0.288466
C 2.486830 -10.812309 -1.225146
H 6.347229 -14.096192 -0.745775
H 6.645405 -15.333575 -2.083081
H 4.291102 -15.191718 -1.621778
H 4.642365 -14.544182 -3.239846
H 4.318220 -12.166394 -3.719438
H 3.428427 -13.750378 0.141149
H 3.016759 -10.141885 -3.186630
H 2.127615 -11.734087 0.675349
H 1.901876 -9.938922 -0.985165
N 7.325857 -12.163300 -1.986796
C 7.808712 -11.050644 -2.760414
C 8.036477 -9.795393 -1.931676
C 6.712998 -9.216675 -1.526134
C 5.998739 -8.425214 -2.417279
C 6.148088 -9.527833 -0.297689
C 4.755632 -7.925297 -2.075443
C 4.892699 -9.055243 0.034700
C 4.203661 -8.239198 -0.845674
H 6.983293 -10.860505 -3.572988
H 8.713147 -11.357910 -3.290569
H 8.588503 -9.083249 -2.544025
H 8.638521 -10.045691 -1.057863
H 6.419745 -8.203930 -3.386791
H 6.690911 -10.140071 0.409257
H 4.211928 -7.303288 -2.770996
H 4.444160 -9.332539 0.975298
H 3.230251 -7.866222 -0.567456
H 7.017514 -11.989881 -1.042733
C 3.514176 -9.317081 -9.050748
C 3.181055 -7.886464 -8.924498
O 3.747771 -7.099794 -8.171906
C 2.852310 -10.165717 -7.946616
C 3.373539 -9.821549 -6.556234
O 1.449131 -10.002121 -7.953264
H 4.597461 -9.348479 -8.933268
H 3.234389 -9.695189 -10.028570
H 3.094850 -11.221086 -8.158014
H 4.419243 -10.101583 -6.467722
H 3.276048 -8.754555 -6.372164
H 2.793517 -10.362558 -5.812966
H 1.161223 -9.909916 -8.877445
N 2.226244 -7.539611 -9.783150
C 1.933792 -6.176398 -9.870550
C 0.442474 -5.919435 -10.146762
O -0.133353 -6.524265 -11.046288
C 2.729145 -5.500953 -11.004101
S 2.389047 -3.699331 -10.979634
H 2.227285 -5.698945 -8.925022
H 2.423170 -5.895390 -11.973539
H 3.795558 -5.654754 -10.844558
H 3.316924 -3.362497 -11.864248
H 1.702256 -8.222509 -10.326002
N -0.144443 -4.986880 -9.397551
C -1.553031 -4.639792 -9.503624
C -2.322597 -5.054906 -8.222616
C -3.736587 -4.483533 -8.260996
O -2.316349 -6.448760 -8.039123
H -1.936458 -5.228444 -10.345609
H -1.683474 -3.697772 -9.676583
H -1.785625 -4.649580 -7.355125
H -4.285325 -4.807333 -7.381047
H 0.386565 -4.522638 -8.676009
H -3.706511 -3.398131 -8.274055
H -4.255272 -4.831987 -9.150335
H -3.065530 -6.846480 -8.522027
C -2.879018 -8.333452 -11.330083
C -1.816855 -9.301141 -11.969173
O -2.023828 -10.512517 -11.924781
C -3.569321 -9.008852 -10.132153
C -2.566634 -9.515939 -9.100578
O -4.404634 -8.057319 -9.484647
H -3.605947 -8.134006 -12.122528
H -2.499457 -7.418956 -10.984882
H -4.176504 -9.850502 -10.486746
H -1.865365 -8.732045 -8.827050
H -3.095746 -9.822252 -8.203825
H -2.009325 -10.354220 -9.503834
H -5.148147 -7.836573 -10.060411
N -0.735040 -8.824082 -12.638038
C 0.436240 -9.723591 -13.065059
C 0.858308 -10.380472 -11.859511
O 1.116333 -9.833563 -10.792349
C 1.519950 -8.814763 -13.643517
C 2.753809 -9.581272 -14.138705
C 2.462819 -10.333481 -15.435343
C 3.904725 -8.599011 -14.353621
H 0.038095 -10.405088 -13.814704
H 1.824086 -8.117714 -12.858975
H 1.098246 -8.237614 -14.466800
H 3.061895 -10.301847 -13.372682
H 2.183873 -9.634508 -16.220428
H 3.348839 -10.871974 -15.762166
H 1.658342 -11.051543 -15.311111
H -0.488642 -7.857043 -12.464153
H 4.786862 -9.119137 -14.718493
H 3.628759 -7.843659 -15.086060
H 4.167010 -8.097784 -13.424168
N 0.997937 -11.667439 -12.087452
C 1.702412 -12.241649 -11.073584
C 0.902937 -12.727655 -9.866815
C 1.399855 -14.056181 -9.363469
C 2.383914 -14.144031 -8.389945
C 0.900556 -15.230973 -9.915132
C 2.868078 -15.375946 -7.983384
C 1.381837 -16.463417 -9.511587
C 2.370547 -16.539192 -8.544836
H 2.655010 -11.780199 -10.840346
H 2.152319 -13.687156 -11.712814
H -0.137377 -12.823166 -10.181332
H 0.957893 -11.986261 -9.070070
H 2.779566 -13.247452 -7.937343
H 0.134044 -15.177981 -10.673061
H 3.640182 -15.425021 -7.228915
H 0.990506 -17.368557 -9.950508
H 2.754640 -17.498264 -8.230270
H 0.647465 -12.150333 -12.894197
C -6.307633 -11.057686 -15.043471
C -6.222486 -11.727273 -13.674283
C -4.771200 -11.882542 -13.219133
C -4.627401 -12.522800 -11.841803
N -4.904882 -13.947201 -11.901392
C -4.952802 -14.750671 -10.844499
N -4.813621 -14.281370 -9.611073
N -5.226990 -16.044250 -11.003796
H -5.842244 -10.073929 -15.022928
H -5.798028 -11.651287 -15.800162
H -7.342896 -10.934393 -15.353435
H -6.707800 -12.702417 -13.729302
H -6.765968 -11.115992 -12.952130
H -4.297659 -10.900270 -13.181537
H -4.215436 -12.465317 -13.956282
H -5.332766 -12.048586 -11.154175
H -3.605502 -12.337692 -11.493018
H -4.959732 -14.351171 -12.823340
H -4.829991 -14.936744 -8.841757
H -4.499812 -13.342109 -9.446465
H -5.301924 -16.462702 -11.913165
H -5.235273 -16.640520 -10.192237
C -12.283978 -13.275610 -13.856906
C -11.385654 -14.221861 -13.069192
C -10.632963 -13.488580 -11.959648
C -9.763197 -14.450369 -11.157356
N -9.056910 -13.737417 -10.108921
C -8.167235 -14.298790 -9.293748
N -7.843637 -15.576660 -9.415722
N -7.546299 -13.554153 -8.381226
H -12.812304 -13.811127 -14.642737
H -13.026546 -12.814947 -13.208560
H -11.701022 -12.483615 -14.322709
H -10.675789 -14.688156 -13.754893
H -12.000902 -15.013867 -12.636822
H -11.361386 -13.008797 -11.302928
H -10.013468 -12.710166 -12.408247
H -9.041522 -14.917511 -11.834050
H -10.404004 -15.228631 -10.727464
H -9.331070 -12.780416 -9.952204
H -7.136538 -15.984827 -8.814620
H -8.309514 -16.165558 -10.081053
H -7.816602 -12.601830 -8.210793
H -6.924402 -13.992171 -7.723463
