899
 energy: -1375.767495263826 gnorm: 0.003215769616 xtb: 6.7.1 (edcfbbe)
C            2.22500000000000       -5.24400000000000        2.38800000000000
C            2.02372991125139       -4.15047683305864        1.33199044429113
C            1.16304422632773       -4.60728043744906        0.18508222757307
C           -0.20557789094880       -4.78701254654999        0.34676416542595
C            1.72350729022646       -4.86717798140817       -1.05961170239215
C           -0.99065002878458       -5.21459889387880       -0.70913007311113
C            0.94201646964121       -5.29628713133592       -2.11754625953344
C           -0.41873540620809       -5.47296682610695       -1.94383094666069
H            1.33138116901603       -5.37332462088971        2.99123976726668
H            2.99833748899391       -3.84768885402585        0.94419718535682
H            1.56591779884415       -3.28186736142516        1.81004404824755
H           -0.66478013919822       -4.57620474900652        1.30309485377057
H            2.78095760521185       -4.71754006145508       -1.21845693625711
H           -2.05611445804232       -5.32115179556080       -0.57211154457891
H            3.06156200000000       -4.98192700000000        3.03575100000000
H            1.39517547197107       -5.48260250353768       -3.08029146816087
H           -1.02822540063746       -5.79883005628076       -2.77359071677755
H            2.45829300000000       -6.19946900000000        1.91815500000000
C           -3.01100000000000       -7.04600000000000        2.03800000000000
C           -3.54894478557842       -5.71793218911484        2.49921843739812
O           -3.07714846903840       -5.13762978647364        3.47461877114327
C           -3.89101080743804       -7.93551783617051        1.16034078696978
C           -3.18172982339744       -9.28373370779137        0.99356130585090
C           -3.95395567465741      -10.26323147655938        0.12075073033754
N           -5.19109512997603      -10.64842300821281        0.76930876512391
C           -6.24943846592389      -11.13889690665054        0.13528125841827
N           -6.19764819749403      -11.43633969972920       -1.15990255976693
N           -7.36679205046282      -11.40022136428792        0.80669310429786
H           -2.09680301059968       -6.79910296471476        1.48446976818452
H           -4.04182863003935       -7.48852214898824        0.17653722700048
H           -2.67804400000000       -7.63711600000000        2.89112500000000
H           -4.86350798766939       -8.07657479826977        1.63094497098363
H           -3.00681629560218       -9.72920722819008        1.97437345360704
H           -2.20787063791709       -9.11452969856082        0.53379603118774
H           -3.33251136052110      -11.14444855337179       -0.06977781741492
H           -4.17560225678513       -9.77930481346279       -0.83365654584654
H           -5.21849452716627      -10.56358909037057        1.77413261233516
H           -7.08190952159678      -11.54684254911044       -1.64026443979849
H           -5.39455927661983      -11.19014775989537       -1.71207387165531
H           -7.46605726333399      -11.15986595913309        1.77706619106530
H           -8.18901376253362      -11.67977027274813        0.29760214178831
N           -4.54844042288025       -5.18171602797698        1.77212340892745
C           -5.02100000000000       -3.84900000000000        2.05500000000000
C           -6.18960156118766       -3.82587801799347        3.05387677587546
O           -6.50913219915241       -2.78861971687141        3.63025467546426
C           -5.50094473562762       -3.13513008131280        0.79697593183193
S           -7.00386917893527       -3.91389218931034        0.10833443382781
H           -4.19711787826013       -3.30307097428691        2.52220870976095
H           -4.73665253956217       -3.16429839173608        0.02389203067676
H           -5.75270106191520       -2.10328524527298        1.02762346470405
H           -7.85380957919094       -3.27924857827076        0.91383721696850
H           -4.86248482007774       -5.60826694555797        0.91125971798222
N           -6.83734168934467       -4.97862389449480        3.15060425834820
C           -7.93600000000000       -5.24400000000000        4.05000000000000
C           -8.86955452155938       -6.28605485574615        3.44167461821465
C           -9.54191637742350       -5.74063791804414        2.19073314550239
S          -10.16182904318689       -7.07082702655469        1.10381012341487
C          -10.37910607739757       -6.10319226029754       -0.40886438094520
H           -8.46077626432809       -4.30889563532735        4.25343418803439
H           -9.62117839102366       -6.56828441508450        4.17648701163596
H           -8.29507553387618       -7.17372367102894        3.17721944208505
H           -8.82646034343830       -5.18915067565823        1.58229276594402
H           -6.47628048829008       -5.76733531807246        2.63090197667896
H          -10.38301267712195       -5.09508447227924        2.44708373897670
H           -9.41308253307404       -5.74748254174983       -0.75994828987991
H          -10.82806097070196       -6.75709793054383       -1.14895253100383
H          -11.04043436891403       -5.26057658177556       -0.21624900660171
H           -7.50125600000000       -5.61037700000000        4.97998200000000
C           -8.18500000000000       -0.99100000000000       -8.35200000000000
C           -8.36688740992857       -0.75839493160137       -9.83530965377041
O           -9.31073524458532       -1.23211806592604      -10.46187284631402
C           -7.30627620247591       -2.21721619746349       -8.06168750626470
C           -5.83279858320994       -1.93371957499399       -8.34816080108749
C           -7.50191508465683       -2.61679241132669       -6.60378289447976
H           -7.77339305614140       -0.10706151809591       -7.86673724706021
H           -7.63571221210335       -3.04359081075327       -8.70294494063149
H           -5.23435126875692       -2.80776270627650       -8.09966018185997
H           -5.67833442509277       -1.72635846221597       -9.40454572019423
H           -5.47964259240562       -1.08962159044872       -7.75882354311507
H           -7.28685954627980       -1.77206165927289       -5.95626405415184
H           -8.52812900548144       -2.93478710751691       -6.43699239249288
H           -6.84003405333573       -3.43663664742299       -6.34734333249198
H           -9.19959400000000       -1.18358100000000       -8.00327100000000
N           -7.45938216425606        0.04667568834146      -10.42059386897170
C           -7.41400000000000        0.21000000000000      -11.85800000000000
C           -6.74349493973665        1.53471611635195      -12.23563983007560
O           -6.54545812731831        1.64869815753379      -13.62432875901571
H           -8.44185197744152        0.15729880861424      -12.22443505126317
H           -5.74415051724765        1.57963518433027      -11.79239843142484
H           -7.33283441480174        2.37577065280500      -11.85341195164840
H           -7.40594604798290        1.70287352633533      -14.06214407358584
H           -6.85682900000000       -0.61921300000000      -12.29396600000000
H           -6.64054090268119        0.32072012611658       -9.89881624607650
C           -3.70800000000000       -0.05600000000000      -15.39700000000000
C           -2.59523257925326       -0.53009451949099      -14.47565034813502
O           -1.41637989927568       -0.57513162717409      -14.82377538391593
C           -3.72998669179193        1.47021684225522      -15.44638336599990
H           -3.48209929564840       -0.43763271723042      -16.39356997415065
H           -4.10734082721623        1.88030084678649      -14.51417132909095
H           -2.72197905227071        1.84543314251094      -15.62222514719288
H           -4.36885416793516        1.80505758092814      -16.25706333558533
H           -4.66965000000000       -0.43690600000000      -15.05314000000000
N           -2.98166599252071       -0.93582500872660      -13.24415282742102
C           -2.04000000000000       -1.41100000000000      -12.24600000000000
C           -1.81853853261968       -2.92436564169841      -12.30490146712802
O           -0.99748731333104       -3.47250865050345      -11.58763608511845
C           -2.42046246695965       -0.95022891237331      -10.84150118668453
C           -2.19636626726321        0.54234505065432      -10.63989592710306
S           -0.39523951845667        1.00646062200856      -10.61843699736251
C           -0.16391275825135        1.70219949763236      -12.25071916010411
H           -1.05330149040284       -1.00020359362923      -12.50907860450998
H           -1.80058675452955       -1.50114259351884      -10.13395737873858
H           -3.46869625449903       -1.19418595927964      -10.65638773802101
H           -2.56951862684162        0.85144202544438       -9.66832614269861
H           -3.94453278855516       -0.81894880447154      -12.96106685437032
H           -2.65392438900387        1.13474659391117      -11.42867433260871
H            0.86786042460878        2.05044309248687      -12.29672661865226
H           -0.30018347363200        0.96576889973620      -13.04341120568453
H           -0.83598134820124        2.54487903532113      -12.38822120776556
N           -2.60045368199703       -3.60171641527157      -13.15266918998217
C           -2.51800000000000       -5.04100000000000      -13.24700000000000
C           -1.08783172630776       -5.52357191069054      -13.49067330135347
O           -0.34975385563814       -4.92368922637199      -14.28186149461531
C           -3.40591482922737       -5.50396954947789      -14.41007362034370
O           -3.41575285269086       -6.90951407785362      -14.47456005242144
H           -2.88904931064486       -5.45815822509705      -12.30399214915778
H           -3.00420491685378       -5.07740588804055      -15.34023978652688
H           -4.41391281711163       -5.11301940295294      -14.23563735110698
H           -4.20277909049519       -7.18074241587857      -14.96977338045452
H           -3.14389751394345       -3.09545219015612      -13.83427766881013
N           -0.72746710486196       -6.66821963893816      -12.92178342837485
C            0.56600000000000       -7.25200000000000      -13.23700000000000
C            0.55952370066704       -7.90573421870395      -14.62738507716504
O            1.61712661689446       -8.09681311831956      -15.22951871013406
C            0.78984306959334       -8.29922741907294      -12.14878984160988
C           -0.62842971657030       -8.74973163408603      -11.82107107822062
C           -1.45952094416924       -7.47308998294391      -11.95016722979339
H            1.25874059040703       -7.83186259389078      -11.28342794649015
H            1.42548973311627       -9.10644735650074      -12.50508828061419
H           -0.68876744665322       -9.15620779962174      -10.81917693090091
H           -0.96449495966492       -9.49713735050590      -12.53878603724260
H            1.33833596503593       -6.47523173656486      -13.24647356001968
H           -2.47062859466170       -7.67565118602861      -12.30196676311876
H           -1.51440911259591       -6.93705596352399      -10.99833611365939
N           -0.62394816063321       -8.28570981213577      -15.09325812404439
C           -0.79300000000000       -8.98500000000000      -16.35300100000000
C           -2.14776526232788       -9.69171212593426      -16.38016994409170
C           -2.29267047154731      -10.69014778991796      -15.26466373664244
C           -1.74747110266583      -11.96434228139987      -15.37558425773226
C           -2.97134266838860      -10.36142451790104      -14.09928193844491
C           -1.89991723855717      -12.89496548461281      -14.36750247113088
C           -3.13483213965814      -11.28615071662667      -13.08282645477716
C           -2.61229835616443      -12.56589453360768      -13.21784543875960
O           -2.77578587530444      -13.52199881330882      -12.26122420372035
H            0.02924536522248       -9.70102261705494      -16.43804841382302
H           -2.24519918877516      -10.19636644861449      -17.34124119900488
H           -2.93075033540843       -8.93855778142264      -16.29968557522400
H           -1.20657234894733      -12.23621347380407      -16.26925908123994
H           -3.38993107349454       -9.37323230847842      -13.98245005614310
H           -1.48814872432526      -13.88765349117797      -14.45504595067091
H           -3.67422653726614      -11.01222704661663      -12.18731255000080
H           -1.47235390850900       -7.98819791571348      -14.62830830482701
H           -3.40760890090439      -13.21648150561653      -11.59410667557723
H           -0.71456600000000       -8.28839700000000      -17.18768100000000
C           -2.57600000000000       -3.35800000000000      -18.79900000000000
C           -2.81387626125384       -2.76080585840747      -20.17424680486051
O           -3.31872818486489       -1.65353344994686      -20.35011687573193
C           -1.11034523481194       -3.13213459420089      -18.40923472607351
C           -0.86518527243143       -3.42156922444689      -16.93251422104005
C            0.45287788936187       -2.83785595489811      -16.41589963766560
N            1.61608344645957       -3.28023527914084      -17.16497610926145
C            2.17776244451985       -4.48537476488941      -17.02606986049735
N            1.56384443429708       -5.45468391854976      -16.36363048777185
N            3.26711890307113       -4.77079567113100      -17.74920344834902
H           -3.20854857990734       -2.81596946804741      -18.09328758160014
H           -0.85604847698613       -2.08307509496217      -18.59554960346815
H           -0.44227931361620       -3.74323568915018      -19.01497335655555
H           -0.88651502115762       -4.49443574273315      -16.74881584224194
H           -1.64110073668246       -2.94694337751359      -16.32924205945931
H            0.55543591556694       -3.08388714993738      -15.35276188274178
H            0.43522149630154       -1.74381072023475      -16.46885574715161
H            2.20416116391123       -2.52228662366266      -17.49034840941433
H            2.01090623755302       -6.35760204950928      -16.23817295214818
H           -2.88036800000000       -4.40461900000000      -18.80603800000000
H            0.84414097513543       -5.21468625194602      -15.68760699986760
H            3.80033949756111       -4.00312335268987      -18.12353667512788
H            3.76886371218114       -5.62456675938036      -17.55657785273190
N           -2.43668474089514       -3.55430843408544      -21.18094790349661
C           -2.42300000000000       -3.11500000000000      -22.56200000000000
C           -1.71893538425506       -4.15354715609593      -23.42792421548670
C           -1.75967086270612       -3.78252806936752      -24.90938622915775
C           -1.08265502419160       -4.85705217172730      -25.76074727268716
C           -1.15511177367377       -4.51075383702391      -27.24379257014078
N           -0.49701507331947       -5.56416148496929      -28.05534180555249
H           -1.92250181290013       -2.14036377984731      -22.62196061266857
H           -2.21249259887978       -5.11539493230349      -23.28058011878195
H           -0.68139550436052       -4.23912225191065      -23.09870198034536
H           -1.26150173755240       -2.82099441103721      -25.04809660802665
H           -2.79988297629674       -3.66256545744487      -25.21552171882862
H           -1.58112211202757       -5.80814939512771      -25.57177849353675
H           -0.04286646144451       -4.94185656735284      -25.44235626140576
H           -0.66103149697558       -3.55543386598084      -27.42024090420589
H           -2.19719028462413       -4.42162845044512      -27.54982084683965
H            0.48897881056269       -5.65141033557338      -27.78200262310419
H           -0.95751373381138       -6.46904070402888      -27.89833473723827
H           -0.54158963167804       -5.33390072757520      -29.05439361431341
H           -3.44959400000000       -2.96830100000000      -22.89768400000000
H           -1.92753081391747       -4.39767659033212      -20.96261789981392
C          -11.61600000000000       -4.26700000000000      -11.18300000000000
C          -10.59751525764846       -4.83640015772233      -10.20444423108328
C           -9.12535375411102       -4.79259091150014      -10.66911172449503
O           -8.85545214050837       -4.55908332188683      -11.86078206131338
O           -8.27425459908052       -5.02501962789521       -9.77124258522244
H          -11.80404876594075       -4.94556055038287      -12.00797855379080
H          -10.82562292492691       -5.87999645919874       -9.97020096581323
H          -10.62957668055836       -4.26943378530191       -9.26947084434578
H          -12.52374900000000       -4.07182000000000      -10.61203900000000
H          -11.23676300000000       -3.32448200000000      -11.57789000000000
C          -11.27300000000000       -5.21900000000000       -4.19900000000000
C          -10.10848657875661       -4.47590661777543       -3.56642643287987
O           -8.97608783298683       -4.94867438239483       -3.52686159803915
C          -10.77135037455449       -6.10040912734533       -5.34140004012379
C          -10.18847382644451       -5.26253200283391       -6.47300810371376
N           -9.29693384374974       -5.90155490184230       -7.23487902202228
O          -10.51610260224089       -4.09113175870745       -6.65580968013367
H          -11.73723289532244       -5.83697701043337       -3.42859562310781
H          -11.59282741871416       -6.68843796400771       -5.75215102443506
H           -9.99512692331570       -6.76789129620679       -4.97377941943115
H           -8.90420435676401       -5.47409814727824       -8.07756737071942
H           -9.09515346278572       -6.87350495110656       -7.07686992425023
H          -12.01351500000000       -4.51557200000000       -4.57969000000000
N          -10.41891638052000       -3.29136158181863       -3.02636440842511
C           -9.51000000000000       -2.51500000000000       -2.21400000000000
C          -10.24282817657053       -2.13255836595480       -0.92240768664417
O          -11.43265312741222       -2.39976732847726       -0.75243775141483
C           -8.97326211070932       -1.27641046474774       -2.96520406679534
C           -7.57460418845395       -0.92104834276977       -2.57752013197886
C           -6.49974959195069       -0.67801155047915       -3.39041725840665
N           -7.17612675627620       -0.77471887638786       -1.27659185341504
C           -5.90481606245247       -0.45579081460027       -1.31334987255247
N           -5.45128345142076       -0.38381951193334       -2.57373938993192
H           -8.66820761264837       -3.17442805852498       -1.96843399351373
H           -9.64041003023916       -0.42757043881243       -2.79126789487958
H           -8.98423749374165       -1.49789977076691       -4.03433985104085
H           -6.39942575639084       -0.68336281637965       -4.45442024250518
H           -5.29989433031417       -0.26727198747906       -0.45079968232478
H          -11.38235443472531       -2.98747193783332       -3.00711079893467
H           -4.51931549579534       -0.16358220610260       -2.90975659568453
N           -9.46684841278952       -1.51543113037558       -0.04290578811941
C           -9.94600000000000       -0.97000000000000        1.20900000000000
C           -9.95332949429112       -2.02374241289289        2.31703218900763
C          -10.57074226795329       -1.49790952445807        3.60025989525507
S          -10.76775252835433       -2.87293130458778        4.78776219621964
C          -11.22541417811827       -1.91977960430132        6.26201326197805
H          -10.96198460659240       -0.58836300398611        1.06728530384715
H           -8.93413130145563       -2.35542132437147        2.52776288529712
H          -10.53519577400048       -2.87679135508986        1.96185070670218
H          -11.56056038114790       -1.07578097898185        3.41751427544271
H           -9.92848759440596       -0.75006294096272        4.06559321672015
H          -12.12790007153902       -1.35177265128816        6.05613828768527
H          -11.40509928111012       -2.63812742638444        7.05364697442498
H           -8.50923007842643       -1.26040149378328       -0.35083702895461
H          -10.40413213517116       -1.26139556712308        6.52915687507564
H           -9.26258000000000       -0.15137300000000        1.43458200000000
C           -2.53900000000000       -1.29100000000000        1.98100000000000
C           -2.31096285864371       -1.52020522491862        0.51140572093972
O           -2.62061315704536       -2.56875697903857       -0.03954806679696
H           -3.58186861069207       -1.51264369337397        2.19707834917040
H           -1.93699238463321       -2.00336473913984        2.54281698933748
H           -2.35872700000000       -0.28800400000000        2.36778200000000
N           -1.75147349140966       -0.50521477868882       -0.16969204950924
C           -1.53600000000000       -0.56900000000000       -1.59900000000000
C           -0.18185595082796       -1.18605382486473       -1.97046507818594
O           -0.01406843821541       -1.75582490730576       -3.04218968066274
C           -1.60468626496794        0.86172570197648       -2.16015455837192
C           -1.50012434049744        0.93978702458709       -3.67472939898279
S           -2.95032985522707        0.22682587041052       -4.55342307401134
C           -2.19287340722175       -1.15591184379116       -5.43986328042879
H           -2.31503513930726       -1.19952089330703       -2.04298136652804
H           -0.77354994117600        1.43985495718501       -1.74652616109758
H           -1.54325170076186        0.36306632179791        0.29928526819453
H           -2.54289859101279        1.31840757423970       -1.84174943872569
H           -0.63302780265762        0.39312410340137       -4.03087176020133
H           -1.43227647846533        1.97886032269653       -3.99211099714002
H           -1.54169880385059       -1.69323097851589       -4.75683518166061
H           -3.00439238882646       -1.79434413955671       -5.77588482787545
H           -1.63870072947375       -0.78512964322666       -6.29965861381067
N            0.78728516008128       -1.02985986020664       -1.06076821662100
C            2.17200000000000       -1.29900000000000       -1.37700000000000
C            2.83792201257990       -0.02800048303841       -1.88009271015038
O            2.52921248476842        1.07837914903196       -1.45707873124013
H            2.19872175528440       -2.08399617332854       -2.13394691724439
H            2.68278192369045       -1.63819885203869       -0.47376665769872
H            0.62159476235087       -0.42562147114815       -0.26953027486866
N            3.78979050548208       -0.23544193157812       -2.79308809877027
C            4.53100000000000        0.86000000000000       -3.36000000000000
C            3.63554824395685        1.88415693143669       -4.05667630410186
O            3.92732839992367        3.07844828591535       -4.04149622870746
C            5.53169970193559        0.28587089244315       -4.38154801998815
O            4.82683900670239       -0.44784882070520       -5.35890270970291
H            5.06701211160898        1.39233986448401       -2.56570478784293
H            6.21524366369234       -0.39883004705175       -3.86804849592367
H            3.91539259683247       -1.13554254046799       -3.23605046256911
H            6.10108447117546        1.09208318998734       -4.84481186339170
H            4.92731009920142        0.03213171515070       -6.19887863336556
N            2.56146639499982        1.38376507125491       -4.65743311613508
C            1.65400000000000        2.14700000000000       -5.48900000000000
C            0.86934913210919        1.20461938343338       -6.40691032304232
C            1.73441340775941        0.44919992768273       -7.41734767660304
S            1.24971813163938       -1.29576976642824       -7.58634158897896
C            1.92175024206989       -1.93992228826873       -5.99093484836703
H            2.22038516988458        2.86119562206028       -6.09338911711070
H            0.11126503651256        1.77268020806665       -6.94669854259040
H            0.35926305492538        0.46440784389567       -5.79159967397490
H            2.78868158856708        0.45679209256692       -7.14533746235619
H            1.64135644444004        0.85884457759274       -8.42700908475632
H            2.47809211209840        0.37761163970638       -4.71657587659843
H            1.27973788496950       -1.65309893131279       -5.16357330896148
H            1.91910105700399       -3.01806262322535       -6.09156173011596
H            2.94202573788866       -1.58658331854076       -5.87742232654120
H            0.92331000000000        2.68262200000000       -4.88294600000000
C            9.58200000000000       12.57900000000000       -8.20300000000000
C            8.22088560490685       12.10668479855380       -8.69719586993232
O            7.68201118914900       12.58517411449319       -9.69432109427911
C           10.44554786262177       13.06493718016901       -9.36850716561804
C           10.97199223616802       11.91493173782206      -10.23279164891710
C           11.96955286204975       11.01759261108391       -9.50357484421264
H           11.29316286041296       13.63620639799077       -8.98626998718491
H            9.84208164374867       13.72016706180512      -10.00048875551244
H           11.45983308259451       12.34070889913233      -11.11451822737787
H           10.13234046911448       11.31886043666098      -10.60567376083128
H            9.39472104349066       13.41399955858964       -7.52504271180558
H           12.42676670123601       10.32704060893860      -10.20811731125278
H           12.75526318436054       11.62012512149819       -9.05460082203436
H           11.47929534286416       10.42915212904193       -8.73404923488048
H           10.14187800000000       11.80788900000000       -7.67382800000000
N            7.61008635913498       11.19816493319045       -7.92301983559442
C            6.26100000000000       10.72600000000000       -8.17800000000000
C            5.99336929121366        9.33746266890861       -7.58685443876378
C            4.54755307209418        9.29009555705951       -7.08181241376712
C            4.06635110937999        7.89838813156786       -6.69732974043248
N            4.73527119924081        7.41299271620917       -5.50541815454362
C            4.46791505230028        6.22978003813547       -4.95575042883150
N            3.56313578667975        5.41541012057599       -5.48478444455937
N            5.06651139002906        5.85674208853247       -3.83124127704964
H            6.10439728370116       10.74832570031486       -9.25996679775039
H            6.68979398597335        9.15853199156372       -6.76852512503630
H            6.15295139719790        8.56968888317967       -8.34234372346589
H            3.90318570810636        9.65166931693506       -7.88423630674401
H            4.43531123848204        9.96784185276582       -6.23467462267048
H            4.24825716949689        7.22533118575101       -7.54131366674476
H            2.98732947574498        7.93980473219955       -6.51447861732292
H            8.07575805430080       10.85733543964205       -7.09552242854960
H            5.39711111168392        8.03005292926508       -5.06299241797321
H            3.47568349099471        4.48924008764287       -5.06728453680545
H            3.16389665066002        5.58202059921340       -6.39050310572076
H            5.75411563247663        6.43220291146197       -3.37926082828269
H            4.85982616651863        4.93360872143010       -3.47706685923930
H            5.54280100000000       11.40859200000000       -7.72373400000000
C           -0.14900000000000        8.73900000000000      -10.08900000000000
C            0.50460511621384        7.45489127412419       -9.57949977220365
C            0.14148857106610        6.26897918978233      -10.47073840649300
C            2.01988405105578        7.61675909796843       -9.52853452980811
H           -0.05558704144755        9.54139558069002       -9.36546096216827
H            0.13327088166728        7.24524033486544       -8.57205872139177
H            0.51192369660079        6.42486368775051      -11.48578693086348
H            0.33643100000000        9.04219600000000      -11.01664700000000
H            0.59598483598917        5.34733331636369      -10.10845004917888
H           -0.93540845535255        6.12443162992053      -10.52117054222337
H            2.42309690720476        7.76393730521505      -10.53162629923191
H            2.29265748119214        8.47463796735880       -8.92357656796017
H            2.48672171975745        6.71883809577047       -9.13540189650265
H           -1.20123500000000        8.55514200000000      -10.30602000000000
C            5.71700000000000        8.78800000000000      -12.44100000000000
C            6.82322376681252        9.66458968071297      -13.00464153804531
O            7.90324304941861        9.74049196070286      -12.43503559431571
C            5.94768202525194        7.29533244510423      -12.72266514651368
C            5.43819669825950        6.46071129321883      -11.57652740121498
C            6.02454456565976        6.58527575344335      -10.32243947212399
C            4.38931008290002        5.56605086539073      -11.72519116379584
C            5.59585544303602        5.82768972968130       -9.25107434317502
C            3.94815494650707        4.79698554821346      -10.66292785245070
C            4.55679843711134        4.92074664087122       -9.41968481270423